 ----------------------------------------------------
    OOO  PPPP  EEEEE N   N M   M PPPP
   O   O P   P E     NN  N MM MM P   P
   O   O PPPP  EEEEE N N N M M M PPPP   -- VERSION
   O   O P     E     N  NN M   M P
    OOO  P     EEEEE N   N M   M P
 ----------------------------------------------------
 running   64 mpi-ranks, with    1 threads/rank
 distrk:  each k-point on   64 cores,    1 groups
 distr:  one band on    1 cores,   64 groups
 vasp.6.3.2 27Jun22 (build May 28 2024 15:01:12) complex                        
  
 POSCAR found type information on POSCAR CuCu
 POSCAR found :  2 types and      64 ions
 Reading from existing POTCAR
 scaLAPACK will be used
 Reading from existing POTCAR
 LDA part: xc-table for Pade appr. of Perdew
 -----------------------------------------------------------------------------
|                                                                             |
|           W    W    AA    RRRRR   N    N  II  N    N   GGGG   !!!           |
|           W    W   A  A   R    R  NN   N  II  NN   N  G    G  !!!           |
|           W    W  A    A  R    R  N N  N  II  N N  N  G       !!!           |
|           W WW W  AAAAAA  RRRRR   N  N N  II  N  N N  G  GGG   !            |
|           WW  WW  A    A  R   R   N   NN  II  N   NN  G    G                |
|           W    W  A    A  R    R  N    N  II  N    N   GGGG   !!!           |
|                                                                             |
|     The number of bands has been changed from the values supplied in        |
|     the INCAR file. This is a result of running the parallel version.       |
|     The orbitals not found in the WAVECAR file will be initialized with     |
|     random numbers, which is usually adequate. For correlated               |
|     calculations, however, you should redo the groundstate calculation.     |
|     I found NBANDS = 2194. Now, NBANDS = 2240.                              |
|                                                                             |
 -----------------------------------------------------------------------------

 POSCAR, INCAR and KPOINTS ok, starting setup
 FFT: planning ... GRIDC
 FFT: planning ... GRID_SOFT
 FFT: planning ... GRID
 WAVECAR not read
 WARNING: random wavefunctions but no delay for mixing, default for NELMDL
 entering main loop
       N       E                     dE             d eps       ncg     rms          rms(c)
DAV:   1     0.645416233142E+04    0.64542E+04   -0.12930E+05 62720   0.326E+02
DAV:   2     0.246108208993E+03   -0.62081E+04   -0.53807E+04 65216   0.118E+02
DAV:   3    -0.398427778576E+03   -0.64454E+03   -0.61750E+03 72256   0.436E+01
DAV:   4    -0.405294092432E+03   -0.68663E+01   -0.68562E+01 75072   0.488E+00
DAV:   5    -0.405382876136E+03   -0.88784E-01   -0.88776E-01 72640   0.561E-01    0.152E+02
RMM:   6    -0.371953187003E+03    0.33430E+02   -0.30016E+01 95086   0.394E+00    0.784E+01
RMM:   7    -0.346838579195E+03    0.25115E+02   -0.52247E+00 94660   0.172E+00    0.151E+01
RMM:   8    -0.344596031176E+03    0.22425E+01   -0.44173E-01106170   0.454E-01    0.985E+00
RMM:   9    -0.344557165625E+03    0.38866E-01   -0.16650E-01110727   0.299E-01    0.724E+00
RMM:  10    -0.344101416421E+03    0.45575E+00   -0.60286E-02109347   0.184E-01    0.934E-01
RMM:  11    -0.344093555642E+03    0.78608E-02   -0.53893E-03110782   0.501E-02    0.745E-01
RMM:  12    -0.344090131161E+03    0.34245E-02   -0.62540E-04109970   0.183E-02    0.517E-01
RMM:  13    -0.344090076310E+03    0.54851E-04   -0.17753E-04107813   0.978E-03    0.206E-01
RMM:  14    -0.344089969667E+03    0.10664E-03   -0.46325E-05105406   0.514E-03    0.594E-02
RMM:  15    -0.344089983307E+03   -0.13639E-04   -0.15140E-05 94534   0.296E-03    0.225E-02
RMM:  16    -0.344089989525E+03   -0.62182E-05   -0.51575E-06 63631   0.174E-03
   1 F= -.34408999E+03 E0= -.34404081E+03  d E =-.983684E-01
 writing wavefunctions
 Starting Core_Hole_Spec
 Ending Core_Hole_Spec
