 vasp.6.3.2 27Jun22 (build May 28 2024 15:01:12) complex                        
  
 executed on             LinuxIFC date 2026.03.31  15:30:42
 running   64 mpi-ranks, with    1 threads/rank
 distrk:  each k-point on   64 cores,    1 groups
 distr:  one band on NCORE=   1 cores,   64 groups


--------------------------------------------------------------------------------------------------------


 INCAR:
   ALGO = Fast
   EDIFF = 1E-5
   ISMEAR = 0
   SIGMA = 0.1
   LREAL = A
   NSW = 0
   IBRION = -1
   ISYM = 0
   NBANDS = 2194
   ICORELEVEL = 2
   CLNT = 1
   CLN = 1
   CLL = 0
   CLZ = 1.0
   CH_AMPLIFICATION = 64
   CH_LSPEC = .TRUE.
   CH_NEDOS = 2000
   CH_SIGMA = 0.1
   LWAVE = .TRUE.
   LCHARG = .TRUE.

 POTCAR:    PAW Cu_GW 19May2006                   
 POTCAR:    PAW Cu_GW 19May2006                   
 POTCAR:    PAW Cu_GW 19May2006                   
   VRHFIN =Cu: d10 p1                                                                               
   LEXCH  = PE                                                                                      
   EATOM  =  1390.9806 eV,  102.2342 Ry                                                             
                                                                                                    
   TITEL  = PAW Cu_GW 19May2006                                                                     
   LULTRA =        F    use ultrasoft PP ?                                                          
   IUNSCR =        1    unscreen: 0-lin 1-nonlin 2-no                                               
   RPACOR =    1.800    partial core radius                                                         
   POMASS =   63.546; ZVAL   =   11.000    mass and valenz                                          
   RCORE  =    2.200    outmost cutoff radius                                                       
   RWIGS  =    2.200; RWIGS  =    1.164    wigner-seitz radius (au A)                               
   ENMAX  =  417.039; ENMIN  =  312.779 eV                                                          
   RCLOC  =    1.506    cutoff for local pot                                                        
   LCOR   =        T    correct aug charges                                                         
   LPAW   =        T    paw PP                                                                      
   EAUG   =  864.801                                                                                
   DEXC   =    0.000                                                                                
   RMAX   =    2.252    core radius for proj-oper                                                   
   RAUG   =    1.300    factor for augmentation sphere                                              
   RDEP   =    2.302    radius for radial grids                                                     
   RDEPT  =    1.771    core radius for aug-charge                                                  
                                                                                                    
   Atomic configuration                                                                             
    9 entries                                                                                       
     n  l   j            E        occ.                                                              
     1  0  0.50     -8850.2467   2.0000                                                             
     2  0  0.50     -1062.3498   2.0000                                                             
     2  1  1.50      -916.8226   6.0000                                                             
     3  0  0.50      -114.6929   2.0000                                                             
     3  1  1.50       -72.1325   6.0000                                                             
     3  2  2.50        -5.0394  10.0000                                                             
     4  0  0.50        -4.6097   1.0000                                                             
     4  1  0.50        -4.0817   0.0000                                                             
     4  3  2.50        -1.3606   0.0000                                                             
   Description                                                                                      
     l       E           TYP  RCUT    TYP  RCUT                                                     
     2     -5.0393941     23  1.850                                                                 
     2     -6.3999767     23  1.850                                                                 
     0     -4.6097107     23  2.200                                                                 
     0     68.0291300     23  2.200                                                                 
     1     -2.7211652     23  2.200                                                                 
     1     81.6349560     23  2.200                                                                 
     3     27.2116520     23  2.200                                                                 
  local pseudopotential read in
  partial core-charges read in
  partial kinetic energy density read in
  kinetic energy density of atom read in
  atomic valenz-charges read in
  non local Contribution for L=           2  read in
    real space projection operators read in
  non local Contribution for L=           2  read in
    real space projection operators read in
  non local Contribution for L=           0  read in
    real space projection operators read in
  non local Contribution for L=           0  read in
    real space projection operators read in
  non local Contribution for L=           1  read in
    real space projection operators read in
  non local Contribution for L=           1  read in
    real space projection operators read in
  non local Contribution for L=           3  read in
    real space projection operators read in
    PAW grid and wavefunctions read in
 
   number of l-projection  operators is LMAX  =           7
   number of lm-projection operators is LMMAX =          25
 
 POTCAR:    PAW Cu_GW 19May2006                   
   VRHFIN =Cu: d10 p1                                                                               
   LEXCH  = PE                                                                                      
   EATOM  =  1390.9806 eV,  102.2342 Ry                                                             
                                                                                                    
   TITEL  = PAW Cu_GW 19May2006                                                                     
   LULTRA =        F    use ultrasoft PP ?                                                          
   IUNSCR =        1    unscreen: 0-lin 1-nonlin 2-no                                               
   RPACOR =    1.800    partial core radius                                                         
   POMASS =   63.546; ZVAL   =   11.000    mass and valenz                                          
   RCORE  =    2.200    outmost cutoff radius                                                       
   RWIGS  =    2.200; RWIGS  =    1.164    wigner-seitz radius (au A)                               
   ENMAX  =  417.039; ENMIN  =  312.779 eV                                                          
   RCLOC  =    1.506    cutoff for local pot                                                        
   LCOR   =        T    correct aug charges                                                         
   LPAW   =        T    paw PP                                                                      
   EAUG   =  864.801                                                                                
   DEXC   =    0.000                                                                                
   RMAX   =    2.252    core radius for proj-oper                                                   
   RAUG   =    1.300    factor for augmentation sphere                                              
   RDEP   =    2.302    radius for radial grids                                                     
   RDEPT  =    1.771    core radius for aug-charge                                                  
                                                                                                    
   Atomic configuration                                                                             
    9 entries                                                                                       
     n  l   j            E        occ.                                                              
     1  0  0.50     -8850.2467   2.0000                                                             
     2  0  0.50     -1062.3498   2.0000                                                             
     2  1  1.50      -916.8226   6.0000                                                             
     3  0  0.50      -114.6929   2.0000                                                             
     3  1  1.50       -72.1325   6.0000                                                             
     3  2  2.50        -5.0394  10.0000                                                             
     4  0  0.50        -4.6097   1.0000                                                             
     4  1  0.50        -4.0817   0.0000                                                             
     4  3  2.50        -1.3606   0.0000                                                             
   Description                                                                                      
     l       E           TYP  RCUT    TYP  RCUT                                                     
     2     -5.0393941     23  1.850                                                                 
     2     -6.3999767     23  1.850                                                                 
     0     -4.6097107     23  2.200                                                                 
     0     68.0291300     23  2.200                                                                 
     1     -2.7211652     23  2.200                                                                 
     1     81.6349560     23  2.200                                                                 
     3     27.2116520     23  2.200                                                                 
  local pseudopotential read in
  partial core-charges read in
  partial kinetic energy density read in
  kinetic energy density of atom read in
  atomic valenz-charges read in
  non local Contribution for L=           2  read in
    real space projection operators read in
  non local Contribution for L=           2  read in
    real space projection operators read in
  non local Contribution for L=           0  read in
    real space projection operators read in
  non local Contribution for L=           0  read in
    real space projection operators read in
  non local Contribution for L=           1  read in
    real space projection operators read in
  non local Contribution for L=           1  read in
    real space projection operators read in
  non local Contribution for L=           3  read in
    real space projection operators read in
    PAW grid and wavefunctions read in
 
   number of l-projection  operators is LMAX  =           7
   number of lm-projection operators is LMMAX =          25
 
 Optimization of the real space projectors (new method)

 maximal supplied QI-value         = 17.01
 optimisation between [QCUT,QGAM] = [ 10.37, 20.92] = [ 30.14,122.54] Ry 
 Optimized for a Real-space Cutoff    1.35 Angstroem

   l    n(q)    QCUT    max X(q) W(low)/X(q) W(high)/X(q)  e(spline) 
   2      7    10.375    92.658    0.32E-03    0.31E-03    0.18E-06
   2      7    10.375    91.655    0.32E-03    0.32E-03    0.18E-06
   0      8    10.375    16.102    0.85E-04    0.12E-03    0.65E-07
   0      8    10.375     8.812    0.82E-04    0.12E-03    0.68E-07
   1      8    10.375     4.652    0.48E-03    0.37E-03    0.68E-07
   1      8    10.375     3.184    0.32E-03    0.24E-03    0.59E-07
   3      7    10.375     4.779    0.40E-03    0.72E-03    0.14E-06
 Optimization of the real space projectors (new method)

 maximal supplied QI-value         = 17.01
 optimisation between [QCUT,QGAM] = [ 10.37, 20.92] = [ 30.14,122.54] Ry 
 Optimized for a Real-space Cutoff    1.35 Angstroem

   l    n(q)    QCUT    max X(q) W(low)/X(q) W(high)/X(q)  e(spline) 
   2      7    10.375    92.658    0.32E-03    0.31E-03    0.18E-06
   2      7    10.375    91.655    0.32E-03    0.32E-03    0.18E-06
   0      8    10.375    16.102    0.85E-04    0.12E-03    0.65E-07
   0      8    10.375     8.812    0.82E-04    0.12E-03    0.68E-07
   1      8    10.375     4.652    0.48E-03    0.37E-03    0.68E-07
   1      8    10.375     3.184    0.32E-03    0.24E-03    0.59E-07
   3      7    10.375     4.779    0.40E-03    0.72E-03    0.14E-06
  PAW Cu_GW 19May2006                   :
 energy of atom  1       EATOM=-1390.9806
 kinetic energy error for atom=    0.0792 (will be added to EATOM!!)
  PAW Cu_GW 19May2006                   :
 energy of atom  2       EATOM=-1390.9806
 kinetic energy error for atom=    0.0792 (will be added to EATOM!!)
 
 
 POSCAR: u64
  positions in direct lattice
  velocities in cartesian coordinates
 exchange correlation table for  LEXCH =        8
   RHO(1)=    0.500       N(1)  =     2000
   RHO(2)=  100.500       N(2)  =     4000
 


--------------------------------------------------------------------------------------------------------


 ion  position               nearest neighbor table
   1  0.000  0.000  0.000-   2 2.56   4 2.56   5 2.56   8 2.56  13 2.56  14 2.56  17 2.56  20 2.56
                            29 2.56  49 2.56  50 2.56  53 2.56
   2  0.000  0.000  0.250-   1 2.56   3 2.56   5 2.56   6 2.56  14 2.56  15 2.56  17 2.56  18 2.56
                            30 2.56  50 2.56  51 2.56  54 2.56
   3  0.000  0.000  0.500-   2 2.56   4 2.56   6 2.56   7 2.56  15 2.56  16 2.56  18 2.56  19 2.56
                            31 2.56  51 2.56  52 2.56  55 2.56
   4  0.000  0.000  0.750-   1 2.56   3 2.56   7 2.56   8 2.56  13 2.56  16 2.56  19 2.56  20 2.56
                            32 2.56  49 2.56  52 2.56  56 2.56
   5  0.000  0.250  0.000-   1 2.56   2 2.56   6 2.56   8 2.56   9 2.56  12 2.56  17 2.56  21 2.56
                            24 2.56  53 2.56  54 2.56  57 2.56
   6  0.000  0.250  0.250-   2 2.56   3 2.56   5 2.56   7 2.56   9 2.56  10 2.56  18 2.56  21 2.56
                            22 2.56  54 2.56  55 2.56  58 2.56
   7  0.000  0.250  0.500-   3 2.56   4 2.56   6 2.56   8 2.56  10 2.56  11 2.56  19 2.56  22 2.56
                            23 2.56  55 2.56  56 2.56  59 2.56
   8  0.000  0.250  0.750-   1 2.56   4 2.56   5 2.56   7 2.56  11 2.56  12 2.56  20 2.56  23 2.56
                            24 2.56  53 2.56  56 2.56  60 2.56
   9  0.000  0.500  0.000-   5 2.56   6 2.56  10 2.56  12 2.56  13 2.56  16 2.56  21 2.56  25 2.56
                            28 2.56  57 2.56  58 2.56  61 2.56
  10  0.000  0.500  0.250-   6 2.56   7 2.56   9 2.56  11 2.56  13 2.56  14 2.56  22 2.56  25 2.56
                            26 2.56  58 2.56  59 2.56  62 2.56
  11  0.000  0.500  0.500-   7 2.56   8 2.56  10 2.56  12 2.56  14 2.56  15 2.56  23 2.56  26 2.56
                            27 2.56  59 2.56  60 2.56  63 2.56
  12  0.000  0.500  0.750-   5 2.56   8 2.56   9 2.56  11 2.56  15 2.56  16 2.56  24 2.56  27 2.56
                            28 2.56  57 2.56  60 2.56  64 2.56
  13  0.000  0.750  0.000-   1 2.56   4 2.56   9 2.56  10 2.56  14 2.56  16 2.56  25 2.56  29 2.56
                            32 2.56  49 2.56  61 2.56  62 2.56
  14  0.000  0.750  0.250-   1 2.56   2 2.56  10 2.56  11 2.56  13 2.56  15 2.56  26 2.56  29 2.56
                            30 2.56  50 2.56  62 2.56  63 2.56
  15  0.000  0.750  0.500-   2 2.56   3 2.56  11 2.56  12 2.56  14 2.56  16 2.56  27 2.56  30 2.56
                            31 2.56  51 2.56  63 2.56  64 2.56
  16  0.000  0.750  0.750-   3 2.56   4 2.56   9 2.56  12 2.56  13 2.56  15 2.56  28 2.56  31 2.56
                            32 2.56  52 2.56  61 2.56  64 2.56
  17  0.250  0.000  0.000-   1 2.56   2 2.56   5 2.56  18 2.56  20 2.56  21 2.56  24 2.56  29 2.56
                            30 2.56  33 2.56  36 2.56  45 2.56
  18  0.250  0.000  0.250-   2 2.56   3 2.56   6 2.56  17 2.56  19 2.56  21 2.56  22 2.56  30 2.56
                            31 2.56  33 2.56  34 2.56  46 2.56
  19  0.250  0.000  0.500-   3 2.56   4 2.56   7 2.56  18 2.56  20 2.56  22 2.56  23 2.56  31 2.56
                            32 2.56  34 2.56  35 2.56  47 2.56
  20  0.250  0.000  0.750-   1 2.56   4 2.56   8 2.56  17 2.56  19 2.56  23 2.56  24 2.56  29 2.56
                            32 2.56  35 2.56  36 2.56  48 2.56
  21  0.250  0.250  0.000-   5 2.56   6 2.56   9 2.56  17 2.56  18 2.56  22 2.56  24 2.56  25 2.56
                            28 2.56  33 2.56  37 2.56  40 2.56
  22  0.250  0.250  0.250-   6 2.56   7 2.56  10 2.56  18 2.56  19 2.56  21 2.56  23 2.56  25 2.56
                            26 2.56  34 2.56  37 2.56  38 2.56
  23  0.250  0.250  0.500-   7 2.56   8 2.56  11 2.56  19 2.56  20 2.56  22 2.56  24 2.56  26 2.56
                            27 2.56  35 2.56  38 2.56  39 2.56
  24  0.250  0.250  0.750-   5 2.56   8 2.56  12 2.56  17 2.56  20 2.56  21 2.56  23 2.56  27 2.56
                            28 2.56  36 2.56  39 2.56  40 2.56
  25  0.250  0.500  0.000-   9 2.56  10 2.56  13 2.56  21 2.56  22 2.56  26 2.56  28 2.56  29 2.56
                            32 2.56  37 2.56  41 2.56  44 2.56
  26  0.250  0.500  0.250-  10 2.56  11 2.56  14 2.56  22 2.56  23 2.56  25 2.56  27 2.56  29 2.56
                            30 2.56  38 2.56  41 2.56  42 2.56
  27  0.250  0.500  0.500-  11 2.56  12 2.56  15 2.56  23 2.56  24 2.56  26 2.56  28 2.56  30 2.56
                            31 2.56  39 2.56  42 2.56  43 2.56
  28  0.250  0.500  0.750-   9 2.56  12 2.56  16 2.56  21 2.56  24 2.56  25 2.56  27 2.56  31 2.56
                            32 2.56  40 2.56  43 2.56  44 2.56
  29  0.250  0.750  0.000-   1 2.56  13 2.56  14 2.56  17 2.56  20 2.56  25 2.56  26 2.56  30 2.56
                            32 2.56  41 2.56  45 2.56  48 2.56
  30  0.250  0.750  0.250-   2 2.56  14 2.56  15 2.56  17 2.56  18 2.56  26 2.56  27 2.56  29 2.56
                            31 2.56  42 2.56  45 2.56  46 2.56
  31  0.250  0.750  0.500-   3 2.56  15 2.56  16 2.56  18 2.56  19 2.56  27 2.56  28 2.56  30 2.56
                            32 2.56  43 2.56  46 2.56  47 2.56
  32  0.250  0.750  0.750-   4 2.56  13 2.56  16 2.56  19 2.56  20 2.56  25 2.56  28 2.56  29 2.56
                            31 2.56  44 2.56  47 2.56  48 2.56
  33  0.500  0.000  0.000-  17 2.56  18 2.56  21 2.56  34 2.56  36 2.56  37 2.56  40 2.56  45 2.56
                            46 2.56  49 2.56  52 2.56  61 2.56
  34  0.500  0.000  0.250-  18 2.56  19 2.56  22 2.56  33 2.56  35 2.56  37 2.56  38 2.56  46 2.56
                            47 2.56  49 2.56  50 2.56  62 2.56
  35  0.500  0.000  0.500-  19 2.56  20 2.56  23 2.56  34 2.56  36 2.56  38 2.56  39 2.56  47 2.56
                            48 2.56  50 2.56  51 2.56  63 2.56
  36  0.500  0.000  0.750-  17 2.56  20 2.56  24 2.56  33 2.56  35 2.56  39 2.56  40 2.56  45 2.56
                            48 2.56  51 2.56  52 2.56  64 2.56
  37  0.500  0.250  0.000-  21 2.56  22 2.56  25 2.56  33 2.56  34 2.56  38 2.56  40 2.56  41 2.56
                            44 2.56  49 2.56  53 2.56  56 2.56
  38  0.500  0.250  0.250-  22 2.56  23 2.56  26 2.56  34 2.56  35 2.56  37 2.56  39 2.56  41 2.56
                            42 2.56  50 2.56  53 2.56  54 2.56
  39  0.500  0.250  0.500-  23 2.56  24 2.56  27 2.56  35 2.56  36 2.56  38 2.56  40 2.56  42 2.56
                            43 2.56  51 2.56  54 2.56  55 2.56
  40  0.500  0.250  0.750-  21 2.56  24 2.56  28 2.56  33 2.56  36 2.56  37 2.56  39 2.56  43 2.56
                            44 2.56  52 2.56  55 2.56  56 2.56
  41  0.500  0.500  0.000-  25 2.56  26 2.56  29 2.56  37 2.56  38 2.56  42 2.56  44 2.56  45 2.56
                            48 2.56  53 2.56  57 2.56  60 2.56
  42  0.500  0.500  0.250-  26 2.56  27 2.56  30 2.56  38 2.56  39 2.56  41 2.56  43 2.56  45 2.56
                            46 2.56  54 2.56  57 2.56  58 2.56
  43  0.500  0.500  0.500-  27 2.56  28 2.56  31 2.56  39 2.56  40 2.56  42 2.56  44 2.56  46 2.56
                            47 2.56  55 2.56  58 2.56  59 2.56
  44  0.500  0.500  0.750-  25 2.56  28 2.56  32 2.56  37 2.56  40 2.56  41 2.56  43 2.56  47 2.56
                            48 2.56  56 2.56  59 2.56  60 2.56
  45  0.500  0.750  0.000-  17 2.56  29 2.56  30 2.56  33 2.56  36 2.56  41 2.56  42 2.56  46 2.56
                            48 2.56  57 2.56  61 2.56  64 2.56
  46  0.500  0.750  0.250-  18 2.56  30 2.56  31 2.56  33 2.56  34 2.56  42 2.56  43 2.56  45 2.56
                            47 2.56  58 2.56  61 2.56  62 2.56
  47  0.500  0.750  0.500-  19 2.56  31 2.56  32 2.56  34 2.56  35 2.56  43 2.56  44 2.56  46 2.56
                            48 2.56  59 2.56  62 2.56  63 2.56
  48  0.500  0.750  0.750-  20 2.56  29 2.56  32 2.56  35 2.56  36 2.56  41 2.56  44 2.56  45 2.56
                            47 2.56  60 2.56  63 2.56  64 2.56
  49  0.750  0.000  0.000-   1 2.56   4 2.56  13 2.56  33 2.56  34 2.56  37 2.56  50 2.56  52 2.56
                            53 2.56  56 2.56  61 2.56  62 2.56
  50  0.750  0.000  0.250-   1 2.56   2 2.56  14 2.56  34 2.56  35 2.56  38 2.56  49 2.56  51 2.56
                            53 2.56  54 2.56  62 2.56  63 2.56
  51  0.750  0.000  0.500-   2 2.56   3 2.56  15 2.56  35 2.56  36 2.56  39 2.56  50 2.56  52 2.56
                            54 2.56  55 2.56  63 2.56  64 2.56
  52  0.750  0.000  0.750-   3 2.56   4 2.56  16 2.56  33 2.56  36 2.56  40 2.56  49 2.56  51 2.56
                            55 2.56  56 2.56  61 2.56  64 2.56
  53  0.750  0.250  0.000-   1 2.56   5 2.56   8 2.56  37 2.56  38 2.56  41 2.56  49 2.56  50 2.56
                            54 2.56  56 2.56  57 2.56  60 2.56
  54  0.750  0.250  0.250-   2 2.56   5 2.56   6 2.56  38 2.56  39 2.56  42 2.56  50 2.56  51 2.56
                            53 2.56  55 2.56  57 2.56  58 2.56
  55  0.750  0.250  0.500-   3 2.56   6 2.56   7 2.56  39 2.56  40 2.56  43 2.56  51 2.56  52 2.56
                            54 2.56  56 2.56  58 2.56  59 2.56
  56  0.750  0.250  0.750-   4 2.56   7 2.56   8 2.56  37 2.56  40 2.56  44 2.56  49 2.56  52 2.56
                            53 2.56  55 2.56  59 2.56  60 2.56
  57  0.750  0.500  0.000-   5 2.56   9 2.56  12 2.56  41 2.56  42 2.56  45 2.56  53 2.56  54 2.56
                            58 2.56  60 2.56  61 2.56  64 2.56
  58  0.750  0.500  0.250-   6 2.56   9 2.56  10 2.56  42 2.56  43 2.56  46 2.56  54 2.56  55 2.56
                            57 2.56  59 2.56  61 2.56  62 2.56
  59  0.750  0.500  0.500-   7 2.56  10 2.56  11 2.56  43 2.56  44 2.56  47 2.56  55 2.56  56 2.56
                            58 2.56  60 2.56  62 2.56  63 2.56
  60  0.750  0.500  0.750-   8 2.56  11 2.56  12 2.56  41 2.56  44 2.56  48 2.56  53 2.56  56 2.56
                            57 2.56  59 2.56  63 2.56  64 2.56
  61  0.750  0.750  0.000-   9 2.56  13 2.56  16 2.56  33 2.56  45 2.56  46 2.56  49 2.56  52 2.56
                            57 2.56  58 2.56  62 2.56  64 2.56
  62  0.750  0.750  0.250-  10 2.56  13 2.56  14 2.56  34 2.56  46 2.56  47 2.56  49 2.56  50 2.56
                            58 2.56  59 2.56  61 2.56  63 2.56
  63  0.750  0.750  0.500-  11 2.56  14 2.56  15 2.56  35 2.56  47 2.56  48 2.56  50 2.56  51 2.56
                            59 2.56  60 2.56  62 2.56  64 2.56
  64  0.750  0.750  0.750-  12 2.56  15 2.56  16 2.56  36 2.56  45 2.56  48 2.56  51 2.56  52 2.56
                            57 2.56  60 2.56  61 2.56  63 2.56
 

IMPORTANT INFORMATION: All symmetrisations will be switched off!
NOSYMM: (Re-)initialisation of all symmetry stuff for point group C_1.


----------------------------------------------------------------------------------------

                                     Primitive cell                                     

  volume of cell :     757.9883

  direct lattice vectors                    reciprocal lattice vectors
    -7.236760000 -7.236760000  0.000000000    -0.069091693 -0.069091693  0.069091693
    -7.236760000  0.000000000 -7.236760000    -0.069091693  0.069091693 -0.069091693
     0.000000000 -7.236760000 -7.236760000     0.069091693 -0.069091693 -0.069091693

  length of vectors
    10.234324140 10.234324140 10.234324140     0.119670323  0.119670323  0.119670323

  position of ions in fractional coordinates (direct lattice)
     0.000000000  0.000000000  0.000000000
     0.000000000  1.000000000  0.250000000
     0.000000000  1.000000000  0.500000000
     0.000000000  1.000000000  0.750000000
     0.000000000  0.250000000  1.000000000
     0.000000000  0.250000000  0.250000000
     0.000000000  0.250000000  0.500000000
     0.000000000  0.250000000  0.750000000
     0.000000000  0.500000000  1.000000000
     0.000000000  0.500000000  0.250000000
     0.000000000  0.500000000  0.500000000
     0.000000000  0.500000000  0.750000000
     0.000000000  0.750000000  1.000000000
     0.000000000  0.750000000  0.250000000
     0.000000000  0.750000000  0.500000000
     0.000000000  0.750000000  0.750000000
     0.250000000  1.000000000  0.000000000
     0.250000000  1.000000000  0.250000000
     0.250000000  1.000000000  0.500000000
     0.250000000  1.000000000  0.750000000
     0.250000000  0.250000000  0.000000000
     0.250000000  0.250000000  0.250000000
     0.250000000  0.250000000  0.500000000
     0.250000000  0.250000000  0.750000000
     0.250000000  0.500000000  1.000000000
     0.250000000  0.500000000  0.250000000
     0.250000000  0.500000000  0.500000000
     0.250000000  0.500000000  0.750000000
     0.250000000  0.750000000  1.000000000
     0.250000000  0.750000000  0.250000000
     0.250000000  0.750000000  0.500000000
     0.250000000  0.750000000  0.750000000
     0.500000000  1.000000000  0.000000000
     0.500000000  1.000000000  0.250000000
     0.500000000  1.000000000  0.500000000
     0.500000000  1.000000000  0.750000000
     0.500000000  0.250000000  0.000000000
     0.500000000  0.250000000  0.250000000
     0.500000000  0.250000000  0.500000000
     0.500000000  0.250000000  0.750000000
     0.500000000  0.500000000  0.000000000
     0.500000000  0.500000000  0.250000000
     0.500000000  0.500000000  0.500000000
     0.500000000  0.500000000  0.750000000
     0.500000000  0.750000000  1.000000000
     0.500000000  0.750000000  0.250000000
     0.500000000  0.750000000  0.500000000
     0.500000000  0.750000000  0.750000000
     0.750000000  1.000000000  0.000000000
     0.750000000  1.000000000  0.250000000
     0.750000000  1.000000000  0.500000000
     0.750000000  1.000000000  0.750000000
     0.750000000  0.250000000  0.000000000
     0.750000000  0.250000000  0.250000000
     0.750000000  0.250000000  0.500000000
     0.750000000  0.250000000  0.750000000
     0.750000000  0.500000000  0.000000000
     0.750000000  0.500000000  0.250000000
     0.750000000  0.500000000  0.500000000
     0.750000000  0.500000000  0.750000000
     0.750000000  0.750000000  0.000000000
     0.750000000  0.750000000  0.250000000
     0.750000000  0.750000000  0.500000000
     0.750000000  0.750000000  0.750000000

  ion indices of the primitive-cell ions
   primitive index   ion index
                 1           1
                 2           2
                 3           3
                 4           4
                 5           5
                 6           6
                 7           7
                 8           8
                 9           9
                10          10
                11          11
                12          12
                13          13
                14          14
                15          15
                16          16
                17          17
                18          18
                19          19
                20          20
                21          21
                22          22
                23          23
                24          24
                25          25
                26          26
                27          27
                28          28
                29          29
                30          30
                31          31
                32          32
                33          33
                34          34
                35          35
                36          36
                37          37
                38          38
                39          39
                40          40
                41          41
                42          42
                43          43
                44          44
                45          45
                46          46
                47          47
                48          48
                49          49
                50          50
                51          51
                52          52
                53          53
                54          54
                55          55
                56          56
                57          57
                58          58
                59          59
                60          60
                61          61
                62          62
                63          63
                64          64

----------------------------------------------------------------------------------------

 
 
 KPOINTS: Default gamma                           

Automatic generation of k-mesh.
 Grid dimensions read from file:
 generate k-points for:    3    3    3

 Generating k-lattice:

  Cartesian coordinates                     Fractional coordinates (reciprocal lattice)
    -0.023030564 -0.023030564  0.023030564     0.333333333 -0.000000000 -0.000000000
    -0.023030564  0.023030564 -0.023030564     0.000000000  0.333333333  0.000000000
     0.023030564 -0.023030564 -0.023030564    -0.000000000  0.000000000  0.333333333

  Length of vectors
     0.039890108  0.039890108  0.039890108

  Shift w.r.t. Gamma in fractional coordinates (k-lattice)
     0.000000000  0.000000000  0.000000000

 
 Subroutine IBZKPT returns following result:
 ===========================================
 
 Found     14 irreducible k-points:
 
 Following reciprocal coordinates:
            Coordinates               Weight
  0.000000  0.000000  0.000000      1.000000
  0.333333 -0.000000 -0.000000      2.000000
  0.000000  0.333333  0.000000      2.000000
 -0.000000  0.000000  0.333333      2.000000
  0.333333  0.333333  0.333333      2.000000
  0.333333  0.333333 -0.000000      2.000000
 -0.000000  0.333333  0.333333      2.000000
  0.333333 -0.000000  0.333333      2.000000
 -0.333333  0.333333  0.000000      2.000000
 -0.000000 -0.333333  0.333333      2.000000
  0.333333 -0.000000 -0.333333      2.000000
  0.333333  0.333333 -0.333333      2.000000
 -0.333333  0.333333 -0.333333      2.000000
  0.333333 -0.333333 -0.333333      2.000000
 
 Following cartesian coordinates:
            Coordinates               Weight
  0.000000  0.000000  0.000000      1.000000
 -0.023031 -0.023031  0.023031      2.000000
 -0.023031  0.023031 -0.023031      2.000000
  0.023031 -0.023031 -0.023031      2.000000
 -0.023031 -0.023031 -0.023031      2.000000
 -0.046061  0.000000  0.000000      2.000000
  0.000000  0.000000 -0.046061      2.000000
  0.000000 -0.046061 -0.000000      2.000000
 -0.000000  0.046061 -0.046061      2.000000
  0.046061 -0.046061 -0.000000      2.000000
 -0.046061  0.000000  0.046061      2.000000
 -0.069092  0.023031  0.023031      2.000000
 -0.023031  0.069092 -0.023031      2.000000
 -0.023031 -0.023031  0.069092      2.000000
 
 -----------------------------------------------------------------------------
|                                                                             |
|           W    W    AA    RRRRR   N    N  II  N    N   GGGG   !!!           |
|           W    W   A  A   R    R  NN   N  II  NN   N  G    G  !!!           |
|           W    W  A    A  R    R  N N  N  II  N N  N  G       !!!           |
|           W WW W  AAAAAA  RRRRR   N  N N  II  N  N N  G  GGG   !            |
|           WW  WW  A    A  R   R   N   NN  II  N   NN  G    G                |
|           W    W  A    A  R    R  N    N  II  N    N   GGGG   !!!           |
|                                                                             |
|     The number of bands has been changed from the values supplied in        |
|     the INCAR file. This is a result of running the parallel version.       |
|     The orbitals not found in the WAVECAR file will be initialized with     |
|     random numbers, which is usually adequate. For correlated               |
|     calculations, however, you should redo the groundstate calculation.     |
|     I found NBANDS = 2194. Now, NBANDS = 2240.                              |
|                                                                             |
 -----------------------------------------------------------------------------



--------------------------------------------------------------------------------------------------------




 Dimension of arrays:
   k-points           NKPTS =     14   k-points in BZ     NKDIM =     14   number of bands    NBANDS=   2240
   number of dos      NEDOS =    301   number of ions     NIONS =     64
   non local maximal  LDIM  =      7   non local SUM 2l+1 LMDIM =     25
   total plane-waves  NPLWV = 157464
   max r-space proj   IRMAX =   2200   max aug-charges    IRDMAX=   6216
   dimension x,y,z NGX =    54 NGY =   54 NGZ =   54
   dimension x,y,z NGXF=   108 NGYF=  108 NGZF=  108
   support grid    NGXF=   108 NGYF=  108 NGZF=  108
   ions per type =               1  63
   NGX,Y,Z   is equivalent  to a cutoff of   8.77,  8.77,  8.77 a.u.
   NGXF,Y,Z  is equivalent  to a cutoff of  17.54, 17.54, 17.54 a.u.

 SYSTEM =  unknown system                          
 POSCAR =  u64                                     

 Startparameter for this run:
   NWRITE =      2    write-flag & timer
   PREC   = normal    normal or accurate (medium, high low for compatibility)
   ISTART =      0    job   : 0-new  1-cont  2-samecut
   ICHARG =      2    charge: 1-file 2-atom 10-const
   ISPIN  =      1    spin polarized calculation?
   LNONCOLLINEAR =      F non collinear calculations
   LSORBIT =      F    spin-orbit coupling
   INIWAV =      1    electr: 0-lowe 1-rand  2-diag
   LASPH  =      F    aspherical Exc in radial PAW
 Electronic Relaxation 1
   ENCUT  =  417.0 eV  30.65 Ry    5.54 a.u.  17.04 17.04 17.04*2*pi/ulx,y,z
   ENINI  =  417.0     initial cutoff
   ENAUG  =  864.8 eV  augmentation charge cutoff
   NELM   =     60;   NELMIN=  2; NELMDL=  0     # of ELM steps 
   EDIFF  = 0.1E-04   stopping-criterion for ELM
   LREAL  =      T    real-space projection
   NLSPLINE    = F    spline interpolate recip. space projectors
   LCOMPAT=      F    compatible to vasp.4.4
   GGA_COMPAT  = T    GGA compatible to vasp.4.4-vasp.4.6
   LMAXPAW     = -100 max onsite density
   LMAXMIX     =    2 max onsite mixed and CHGCAR
   VOSKOWN=      0    Vosko Wilk Nusair interpolation
   ROPT   =   -0.00050  -0.00050
 Ionic relaxation
   EDIFFG = 0.1E-03   stopping-criterion for IOM
   NSW    =      0    number of steps for IOM
   NBLOCK =      1;   KBLOCK =      1    inner block; outer block 
   IBRION =     -1    ionic relax: 0-MD 1-quasi-New 2-CG
   NFREE  =      0    steps in history (QN), initial steepest desc. (CG)
   ISIF   =      2    stress and relaxation
   IWAVPR =     10    prediction:  0-non 1-charg 2-wave 3-comb
   ISYM   =      0    0-nonsym 1-usesym 2-fastsym
   LCORR  =      T    Harris-Foulkes like correction to forces

   POTIM  = 0.5000    time-step for ionic-motion
   TEIN   =    0.0    initial temperature
   TEBEG  =    0.0;   TEEND  =   0.0 temperature during run
   SMASS  =  -3.00    Nose mass-parameter (am)
   estimated Nose-frequenzy (Omega)   =  0.10E-29 period in steps = 0.13E+47 mass=  -0.239E-26a.u.
   SCALEE = 1.0000    scale energy and forces
   NPACO  =    256;   APACO  = 10.0  distance and # of slots for P.C.
   PSTRESS=    0.0 pullay stress

  Mass of Ions in am
   POMASS =  63.55 63.55
  Ionic Valenz
   ZVAL   =  12.00 11.00
  Atomic Wigner-Seitz radii
   RWIGS  =  -1.00 -1.00
  virtual crystal weights 
   VCA    =   1.00  1.00
   NELECT =     705.0000    total number of electrons
   NUPDOWN=      -1.0000    fix difference up-down

 DOS related values:
   EMIN   =  10.00;   EMAX   =-10.00  energy-range for DOS
   EFERMI =   0.00
   ISMEAR =     0;   SIGMA  =   0.10  broadening in eV -4-tet -1-fermi 0-gaus

 Electronic relaxation 2 (details)
   IALGO  =     68    algorithm
   LDIAG  =      T    sub-space diagonalisation (order eigenvalues)
   LSUBROT=      F    optimize rotation matrix (better conditioning)
   TURBO    =      0    0=normal 1=particle mesh
   IRESTART =      0    0=no restart 2=restart with 2 vectors
   NREBOOT  =      0    no. of reboots
   NMIN     =      0    reboot dimension
   EREF     =   0.00    reference energy to select bands
   IMIX   =      4    mixing-type and parameters
     AMIX     =   0.40;   BMIX     =  1.00
     AMIX_MAG =   1.60;   BMIX_MAG =  1.00
     AMIN     =   0.10
     WC   =   100.;   INIMIX=   1;  MIXPRE=   1;  MAXMIX= -45

 Intra band minimization:
   WEIMIN = 0.0000     energy-eigenvalue tresh-hold
   EBREAK =  0.11E-08  absolut break condition
   DEPER  =   0.30     relativ break condition  

   TIME   =   0.40     timestep for ELM

  volume/ion in A,a.u.               =      11.84        79.92
  Fermi-wavevector in a.u.,A,eV,Ry     =   1.598025  3.019830 34.745000  2.553685
  Thomas-Fermi vector in A             =   2.695540
 
 Write flags
   LWAVE        =      T    write WAVECAR
   LDOWNSAMPLE  =      F    k-point downsampling of WAVECAR
   LCHARG       =      T    write CHGCAR
   LVTOT        =      F    write LOCPOT, total local potential
   LVHAR        =      F    write LOCPOT, Hartree potential only
   LELF         =      F    write electronic localiz. function (ELF)
   LORBIT       =      0    0 simple, 1 ext, 2 COOP (PROOUT), +10 PAW based schemes


 Dipole corrections
   LMONO  =      F    monopole corrections only (constant potential shift)
   LDIPOL =      F    correct potential (dipole corrections)
   IDIPOL =      0    1-x, 2-y, 3-z, 4-all directions 
   EPSILON=  1.0000000 bulk dielectric constant

 Core level calculations are selected ICORELEVEL =  2
  CLNT =           1       CLN =     1
  CLL  =           0       CLZ = 1.000
 Exchange correlation treatment:
   GGA     =    --    GGA type
   LEXCH   =     8    internal setting for exchange type
   LIBXC   =     F    Libxc                    
   VOSKOWN =     0    Vosko Wilk Nusair interpolation
   LHFCALC =     F    Hartree Fock is set to
   LHFONE  =     F    Hartree Fock one center treatment
   AEXX    =    0.0000 exact exchange contribution

 Linear response parameters
   LEPSILON=     F    determine dielectric tensor
   LRPA    =     F    only Hartree local field effects (RPA)
   LNABLA  =     F    use nabla operator in PAW spheres
   LVEL    =     F    velocity operator in full k-point grid
   CSHIFT  =0.1000    complex shift for real part using Kramers Kronig
   OMEGAMAX=  -1.0    maximum frequency
   DEG_THRESHOLD= 0.2000000E-02 threshold for treating states as degnerate
   RTIME   =   -0.100 relaxation time in fs
  (WPLASMAI=    0.000 imaginary part of plasma frequency in eV, 0.658/RTIME)
   DFIELD  = 0.0000000 0.0000000 0.0000000 field for delta impulse in time
 
  Optional k-point grid parameters
   LKPOINTS_OPT  =     F    use optional k-point grid
   KPOINTS_OPT_MODE=     1    mode for optional k-point grid
 
 Orbital magnetization related:
   ORBITALMAG=     F  switch on orbital magnetization
   LCHIMAG   =     F  perturbation theory with respect to B field
   DQ        =  0.001000  dq finite difference perturbation B field
   LLRAUG    =     F  two centre corrections for induced B field



--------------------------------------------------------------------------------------------------------


 Static calculation
 charge density and potential will be updated during run
 non-spin polarized calculation
 RMM-DIIS sequential band-by-band and
  variant of blocked Davidson during initial phase
 perform sub-space diagonalisation
    before iterative eigenvector-optimisation
 modified Broyden-mixing scheme, WC =      100.0
 initial mixing is a Kerker type mixing with AMIX =  0.4000 and BMIX =      1.0000
 Hartree-type preconditioning will be used
 using additional bands         1887
 real space projection scheme for non local part
 use partial core corrections
 calculate Harris-corrections to forces 
   (improved forces if not selfconsistent)
 use gradient corrections 
 use of overlap-Matrix (Vanderbilt PP)
 Gauss-broadening in eV      SIGMA  =   0.10


--------------------------------------------------------------------------------------------------------


  energy-cutoff  :      417.04
  volume of cell :      757.99
      direct lattice vectors                 reciprocal lattice vectors
     -7.236760000  -7.236760000   0.000000000     -0.069091693  -0.069091693   0.069091693
     -7.236760000   0.000000000  -7.236760000     -0.069091693   0.069091693  -0.069091693
      0.000000000  -7.236760000  -7.236760000      0.069091693  -0.069091693  -0.069091693

  length of vectors
     10.234324140  10.234324140  10.234324140      0.119670323   0.119670323   0.119670323


 
 k-points in units of 2pi/SCALE and weight: Default gamma                           
   0.00000000  0.00000000  0.00000000       0.037
  -0.02303056 -0.02303056  0.02303056       0.074
  -0.02303056  0.02303056 -0.02303056       0.074
   0.02303056 -0.02303056 -0.02303056       0.074
  -0.02303056 -0.02303056 -0.02303056       0.074
  -0.04606113  0.00000000  0.00000000       0.074
   0.00000000  0.00000000 -0.04606113       0.074
   0.00000000 -0.04606113 -0.00000000       0.074
  -0.00000000  0.04606113 -0.04606113       0.074
   0.04606113 -0.04606113 -0.00000000       0.074
  -0.04606113  0.00000000  0.04606113       0.074
  -0.06909169  0.02303056  0.02303056       0.074
  -0.02303056  0.06909169 -0.02303056       0.074
  -0.02303056 -0.02303056  0.06909169       0.074
 
 k-points in reciprocal lattice and weights: Default gamma                           
   0.00000000  0.00000000  0.00000000       0.037
   0.33333333 -0.00000000 -0.00000000       0.074
   0.00000000  0.33333333  0.00000000       0.074
  -0.00000000  0.00000000  0.33333333       0.074
   0.33333333  0.33333333  0.33333333       0.074
   0.33333333  0.33333333 -0.00000000       0.074
  -0.00000000  0.33333333  0.33333333       0.074
   0.33333333 -0.00000000  0.33333333       0.074
  -0.33333333  0.33333333  0.00000000       0.074
  -0.00000000 -0.33333333  0.33333333       0.074
   0.33333333 -0.00000000 -0.33333333       0.074
   0.33333333  0.33333333 -0.33333333       0.074
  -0.33333333  0.33333333 -0.33333333       0.074
   0.33333333 -0.33333333 -0.33333333       0.074
 
 position of ions in fractional coordinates (direct lattice) 
   0.00000000  0.00000000  0.00000000
   0.00000000  0.00000000  0.25000000
   0.00000000  0.00000000  0.50000000
   0.00000000  0.00000000  0.75000000
   0.00000000  0.25000000  0.00000000
   0.00000000  0.25000000  0.25000000
   0.00000000  0.25000000  0.50000000
   0.00000000  0.25000000  0.75000000
   0.00000000  0.50000000  0.00000000
   0.00000000  0.50000000  0.25000000
   0.00000000  0.50000000  0.50000000
   0.00000000  0.50000000  0.75000000
   0.00000000  0.75000000  0.00000000
   0.00000000  0.75000000  0.25000000
   0.00000000  0.75000000  0.50000000
   0.00000000  0.75000000  0.75000000
   0.25000000  0.00000000  0.00000000
   0.25000000  0.00000000  0.25000000
   0.25000000  0.00000000  0.50000000
   0.25000000  0.00000000  0.75000000
   0.25000000  0.25000000  0.00000000
   0.25000000  0.25000000  0.25000000
   0.25000000  0.25000000  0.50000000
   0.25000000  0.25000000  0.75000000
   0.25000000  0.50000000  0.00000000
   0.25000000  0.50000000  0.25000000
   0.25000000  0.50000000  0.50000000
   0.25000000  0.50000000  0.75000000
   0.25000000  0.75000000  0.00000000
   0.25000000  0.75000000  0.25000000
   0.25000000  0.75000000  0.50000000
   0.25000000  0.75000000  0.75000000
   0.50000000  0.00000000  0.00000000
   0.50000000  0.00000000  0.25000000
   0.50000000  0.00000000  0.50000000
   0.50000000  0.00000000  0.75000000
   0.50000000  0.25000000  0.00000000
   0.50000000  0.25000000  0.25000000
   0.50000000  0.25000000  0.50000000
   0.50000000  0.25000000  0.75000000
   0.50000000  0.50000000  0.00000000
   0.50000000  0.50000000  0.25000000
   0.50000000  0.50000000  0.50000000
   0.50000000  0.50000000  0.75000000
   0.50000000  0.75000000  0.00000000
   0.50000000  0.75000000  0.25000000
   0.50000000  0.75000000  0.50000000
   0.50000000  0.75000000  0.75000000
   0.75000000  0.00000000  0.00000000
   0.75000000  0.00000000  0.25000000
   0.75000000  0.00000000  0.50000000
   0.75000000  0.00000000  0.75000000
   0.75000000  0.25000000  0.00000000
   0.75000000  0.25000000  0.25000000
   0.75000000  0.25000000  0.50000000
   0.75000000  0.25000000  0.75000000
   0.75000000  0.50000000  0.00000000
   0.75000000  0.50000000  0.25000000
   0.75000000  0.50000000  0.50000000
   0.75000000  0.50000000  0.75000000
   0.75000000  0.75000000  0.00000000
   0.75000000  0.75000000  0.25000000
   0.75000000  0.75000000  0.50000000
   0.75000000  0.75000000  0.75000000
 
 position of ions in cartesian coordinates  (Angst):
   0.00000000  0.00000000  0.00000000
   0.00000000 -1.80919000 -1.80919000
   0.00000000 -3.61838000 -3.61838000
   0.00000000 -5.42757000 -5.42757000
  -1.80919000  0.00000000 -1.80919000
  -1.80919000 -1.80919000 -3.61838000
  -1.80919000 -3.61838000 -5.42757000
  -1.80919000 -5.42757000 -7.23676000
  -3.61838000  0.00000000 -3.61838000
  -3.61838000 -1.80919000 -5.42757000
  -3.61838000 -3.61838000 -7.23676000
  -3.61838000 -5.42757000 -9.04595000
  -5.42757000  0.00000000 -5.42757000
  -5.42757000 -1.80919000 -7.23676000
  -5.42757000 -3.61838000 -9.04595000
  -5.42757000 -5.42757000-10.85514000
  -1.80919000 -1.80919000  0.00000000
  -1.80919000 -3.61838000 -1.80919000
  -1.80919000 -5.42757000 -3.61838000
  -1.80919000 -7.23676000 -5.42757000
  -3.61838000 -1.80919000 -1.80919000
  -3.61838000 -3.61838000 -3.61838000
  -3.61838000 -5.42757000 -5.42757000
  -3.61838000 -7.23676000 -7.23676000
  -5.42757000 -1.80919000 -3.61838000
  -5.42757000 -3.61838000 -5.42757000
  -5.42757000 -5.42757000 -7.23676000
  -5.42757000 -7.23676000 -9.04595000
  -7.23676000 -1.80919000 -5.42757000
  -7.23676000 -3.61838000 -7.23676000
  -7.23676000 -5.42757000 -9.04595000
  -7.23676000 -7.23676000-10.85514000
  -3.61838000 -3.61838000  0.00000000
  -3.61838000 -5.42757000 -1.80919000
  -3.61838000 -7.23676000 -3.61838000
  -3.61838000 -9.04595000 -5.42757000
  -5.42757000 -3.61838000 -1.80919000
  -5.42757000 -5.42757000 -3.61838000
  -5.42757000 -7.23676000 -5.42757000
  -5.42757000 -9.04595000 -7.23676000
  -7.23676000 -3.61838000 -3.61838000
  -7.23676000 -5.42757000 -5.42757000
  -7.23676000 -7.23676000 -7.23676000
  -7.23676000 -9.04595000 -9.04595000
  -9.04595000 -3.61838000 -5.42757000
  -9.04595000 -5.42757000 -7.23676000
  -9.04595000 -7.23676000 -9.04595000
  -9.04595000 -9.04595000-10.85514000
  -5.42757000 -5.42757000  0.00000000
  -5.42757000 -7.23676000 -1.80919000
  -5.42757000 -9.04595000 -3.61838000
  -5.42757000-10.85514000 -5.42757000
  -7.23676000 -5.42757000 -1.80919000
  -7.23676000 -7.23676000 -3.61838000
  -7.23676000 -9.04595000 -5.42757000
  -7.23676000-10.85514000 -7.23676000
  -9.04595000 -5.42757000 -3.61838000
  -9.04595000 -7.23676000 -5.42757000
  -9.04595000 -9.04595000 -7.23676000
  -9.04595000-10.85514000 -9.04595000
 -10.85514000 -5.42757000 -5.42757000
 -10.85514000 -7.23676000 -7.23676000
 -10.85514000 -9.04595000 -9.04595000
 -10.85514000-10.85514000-10.85514000
 


--------------------------------------------------------------------------------------------------------


 k-point   1 :   0.0000 0.0000 0.0000  plane waves:   14649
 k-point   2 :   0.3333-0.0000-0.0000  plane waves:   14659
 k-point   3 :   0.0000 0.3333 0.0000  plane waves:   14659
 k-point   4 :  -0.0000 0.0000 0.3333  plane waves:   14659
 k-point   5 :   0.3333 0.3333 0.3333  plane waves:   14659
 k-point   6 :   0.3333 0.3333-0.0000  plane waves:   14668
 k-point   7 :  -0.0000 0.3333 0.3333  plane waves:   14668
 k-point   8 :   0.3333-0.0000 0.3333  plane waves:   14668
 k-point   9 :  -0.3333 0.3333 0.0000  plane waves:   14673
 k-point  10 :  -0.0000-0.3333 0.3333  plane waves:   14673
 k-point  11 :   0.3333-0.0000-0.3333  plane waves:   14673
 k-point  12 :   0.3333 0.3333-0.3333  plane waves:   14673
 k-point  13 :  -0.3333 0.3333-0.3333  plane waves:   14673
 k-point  14 :   0.3333-0.3333-0.3333  plane waves:   14673

 maximum and minimum number of plane-waves per node :     14673    14649

 maximum number of plane-waves:     14673
 maximum index in each direction: 
   IXMAX=   17   IYMAX=   17   IZMAX=   17
   IXMIN=  -17   IYMIN=  -17   IZMIN=  -17


 serial   3D FFT for wavefunctions
 parallel 3D FFT for charge:
    minimum data exchange during FFTs selected (reduces bandwidth)


 total amount of memory used by VASP MPI-rank0   200766. kBytes
=======================================================================

   base      :      30000. kBytes
   nonlr-proj:      31801. kBytes
   fftplans  :       1429. kBytes
   grid      :       7668. kBytes
   one-center:       1920. kBytes
   wavefun   :     127948. kBytes
 
     INWAV:  cpu time      0.0002: real time      0.0007
 Broyden mixing: mesh for mixing (old mesh)
   NGX = 35   NGY = 35   NGZ = 35
  (NGX  =108   NGY  =108   NGZ  =108)
  gives a total of  42875 points

 initial charge density was supplied:
 charge density of overlapping atoms calculated
 number of electron     705.0000000 magnetization 
 keeping initial charge density in first step


--------------------------------------------------------------------------------------------------------


 Maximum index for non-local projection operator         2098
 Maximum index for augmentation-charges          361 (set IRDMAX)


--------------------------------------------------------------------------------------------------------


 First call to EWALD:  gamma=   0.194
 Maximum number of real-space cells 3x 3x 3
 Maximum number of reciprocal cells 3x 3x 3

    FEWALD:  cpu time      0.0016: real time      0.0043


--------------------------------------- Iteration      1(   1)  ---------------------------------------


    POTLOK:  cpu time      0.0166: real time      0.0191
    SETDIJ:  cpu time      0.0120: real time      0.0178
     EDDAV:  cpu time     58.9776: real time     59.1461
       DOS:  cpu time      0.0030: real time      0.0031
    --------------------------------------------
      LOOP:  cpu time     59.0093: real time     59.1861

 eigenvalue-minimisations  : 62720
 total energy-change (2. order) : 0.6454162E+04  (-0.1293022E+05)
 number of electron     705.0000000 magnetization 
 augmentation part      705.0000000 magnetization 

 Free energy of the ion-electron system (eV)
  ---------------------------------------------------
  alpha Z        PSCENC =      5872.37522996
  Ewald energy   TEWEN  =    -70851.59314645
  -Hartree energ DENC   =    -20710.68639321
  -exchange      EXHF   =         0.00000000
  -V(xc)+E(xc)   XCENC  =      1805.78962976
  PAW double counting   =     77089.72333547   -85322.10488896
  entropy T*S    EENTRO =        -0.24733671
  eigenvalues    EBANDS =      9553.21716108
  atomic energy  EATOM  =     89017.68874048
  Solvation  Ediel_sol  =         0.00000000
  ---------------------------------------------------
  free energy    TOTEN  =      6454.16233142 eV

  energy without entropy =     6454.40966813  energy(sigma->0) =     6454.28599978


--------------------------------------------------------------------------------------------------------




--------------------------------------- Iteration      1(   2)  ---------------------------------------


     EDDAV:  cpu time     61.0300: real time     61.2033
       DOS:  cpu time      0.0019: real time      0.0019
    --------------------------------------------
      LOOP:  cpu time     61.0318: real time     61.2052

 eigenvalue-minimisations  : 65216
 total energy-change (2. order) :-0.6208054E+04  (-0.5380687E+04)
 number of electron     705.0000000 magnetization 
 augmentation part      705.0000000 magnetization 

 Free energy of the ion-electron system (eV)
  ---------------------------------------------------
  alpha Z        PSCENC =      5872.37522996
  Ewald energy   TEWEN  =    -70851.59314645
  -Hartree energ DENC   =    -20710.68639321
  -exchange      EXHF   =         0.00000000
  -V(xc)+E(xc)   XCENC  =      1805.78962976
  PAW double counting   =     77089.72333547   -85322.10488896
  entropy T*S    EENTRO =        -0.25988833
  eigenvalues    EBANDS =      3345.17559028
  atomic energy  EATOM  =     89017.68874048
  Solvation  Ediel_sol  =         0.00000000
  ---------------------------------------------------
  free energy    TOTEN  =       246.10820899 eV

  energy without entropy =      246.36809732  energy(sigma->0) =      246.23815316


--------------------------------------------------------------------------------------------------------




--------------------------------------- Iteration      1(   3)  ---------------------------------------


     EDDAV:  cpu time     68.5816: real time     68.7694
       DOS:  cpu time      0.0019: real time      0.0019
    --------------------------------------------
      LOOP:  cpu time     68.5835: real time     68.7713

 eigenvalue-minimisations  : 72256
 total energy-change (2. order) :-0.6445360E+03  (-0.6174972E+03)
 number of electron     705.0000000 magnetization 
 augmentation part      705.0000000 magnetization 

 Free energy of the ion-electron system (eV)
  ---------------------------------------------------
  alpha Z        PSCENC =      5872.37522996
  Ewald energy   TEWEN  =    -70851.59314645
  -Hartree energ DENC   =    -20710.68639321
  -exchange      EXHF   =         0.00000000
  -V(xc)+E(xc)   XCENC  =      1805.78962976
  PAW double counting   =     77089.72333547   -85322.10488896
  entropy T*S    EENTRO =        -0.20995428
  eigenvalues    EBANDS =      2700.58966866
  atomic energy  EATOM  =     89017.68874048
  Solvation  Ediel_sol  =         0.00000000
  ---------------------------------------------------
  free energy    TOTEN  =      -398.42777858 eV

  energy without entropy =     -398.21782430  energy(sigma->0) =     -398.32280144


--------------------------------------------------------------------------------------------------------




--------------------------------------- Iteration      1(   4)  ---------------------------------------


     EDDAV:  cpu time     71.3900: real time     71.5688
       DOS:  cpu time      0.0019: real time      0.0019
    --------------------------------------------
      LOOP:  cpu time     71.3919: real time     71.5707

 eigenvalue-minimisations  : 75072
 total energy-change (2. order) :-0.6866314E+01  (-0.6856235E+01)
 number of electron     705.0000000 magnetization 
 augmentation part      705.0000000 magnetization 

 Free energy of the ion-electron system (eV)
  ---------------------------------------------------
  alpha Z        PSCENC =      5872.37522996
  Ewald energy   TEWEN  =    -70851.59314645
  -Hartree energ DENC   =    -20710.68639321
  -exchange      EXHF   =         0.00000000
  -V(xc)+E(xc)   XCENC  =      1805.78962976
  PAW double counting   =     77089.72333547   -85322.10488896
  entropy T*S    EENTRO =        -0.20926913
  eigenvalues    EBANDS =      2693.72266966
  atomic energy  EATOM  =     89017.68874048
  Solvation  Ediel_sol  =         0.00000000
  ---------------------------------------------------
  free energy    TOTEN  =      -405.29409243 eV

  energy without entropy =     -405.08482330  energy(sigma->0) =     -405.18945787


--------------------------------------------------------------------------------------------------------




--------------------------------------- Iteration      1(   5)  ---------------------------------------


     EDDAV:  cpu time     68.8391: real time     69.0344
       DOS:  cpu time      0.0019: real time      0.0019
    CHARGE:  cpu time      0.1479: real time      0.1485
    MIXING:  cpu time      0.0024: real time      0.0025
    --------------------------------------------
      LOOP:  cpu time     68.9914: real time     69.1874

 eigenvalue-minimisations  : 72640
 total energy-change (2. order) :-0.8878370E-01  (-0.8877604E-01)
 number of electron     705.0004663 magnetization 
 augmentation part      353.2326805 magnetization 

 Broyden mixing:
  rms(total) = 0.15215E+02    rms(broyden)= 0.15214E+02
  rms(prec ) = 0.16156E+02
  weight for this iteration     100.00

 Free energy of the ion-electron system (eV)
  ---------------------------------------------------
  alpha Z        PSCENC =      5872.37522996
  Ewald energy   TEWEN  =    -70851.59314645
  -Hartree energ DENC   =    -20710.68639321
  -exchange      EXHF   =         0.00000000
  -V(xc)+E(xc)   XCENC  =      1805.78962976
  PAW double counting   =     77089.72333547   -85322.10488896
  entropy T*S    EENTRO =        -0.20926126
  eigenvalues    EBANDS =      2693.63387808
  atomic energy  EATOM  =     89017.68874048
  Solvation  Ediel_sol  =         0.00000000
  ---------------------------------------------------
  free energy    TOTEN  =      -405.38287614 eV

  energy without entropy =     -405.17361488  energy(sigma->0) =     -405.27824551


--------------------------------------------------------------------------------------------------------




--------------------------------------- Iteration      1(   6)  ---------------------------------------


    POTLOK:  cpu time      0.0121: real time      0.0136
    SETDIJ:  cpu time      0.0055: real time      0.0111
    EDDIAG:  cpu time     14.0536: real time     14.0856
  RMM-DIIS:  cpu time     19.3035: real time     19.3515
    ORTHCH:  cpu time      6.0629: real time      6.0785
       DOS:  cpu time      0.0019: real time      0.0019
    CHARGE:  cpu time      0.1490: real time      0.1544
    MIXING:  cpu time      0.0013: real time      0.0014
    --------------------------------------------
      LOOP:  cpu time     39.5898: real time     39.6980

 eigenvalue-minimisations  : 95086
 total energy-change (2. order) : 0.3342969E+02  (-0.3001590E+01)
 number of electron     705.0005334 magnetization 
 augmentation part      400.9350595 magnetization 

 Broyden mixing:
  rms(total) = 0.78444E+01    rms(broyden)= 0.78442E+01
  rms(prec ) = 0.83297E+01
  weight for this iteration     100.00

 eigenvalues of (default mixing * dielectric matrix)
  average eigenvalue GAMMA=   0.7947
  0.7947

 Free energy of the ion-electron system (eV)
  ---------------------------------------------------
  alpha Z        PSCENC =      5872.37522996
  Ewald energy   TEWEN  =    -70851.59314645
  -Hartree energ DENC   =    -19158.79912076
  -exchange      EXHF   =         0.00000000
  -V(xc)+E(xc)   XCENC  =      1733.71181871
  PAW double counting   =     77868.39643239   -85623.75120263
  entropy T*S    EENTRO =        -0.14117694
  eigenvalues    EBANDS =       770.15923823
  atomic energy  EATOM  =     89017.68874048
  Solvation  Ediel_sol  =         0.00000000
  ---------------------------------------------------
  free energy    TOTEN  =      -371.95318700 eV

  energy without entropy =     -371.81201007  energy(sigma->0) =     -371.88259853


--------------------------------------------------------------------------------------------------------




--------------------------------------- Iteration      1(   7)  ---------------------------------------


    POTLOK:  cpu time      0.0118: real time      0.0194
    SETDIJ:  cpu time      0.0063: real time      0.0120
    EDDIAG:  cpu time     13.8426: real time     13.8752
  RMM-DIIS:  cpu time     19.2932: real time     19.3515
    ORTHCH:  cpu time      6.3047: real time      6.3194
       DOS:  cpu time      0.0018: real time      0.0018
    CHARGE:  cpu time      0.1478: real time      0.1498
    MIXING:  cpu time      0.0005: real time      0.0005
    --------------------------------------------
      LOOP:  cpu time     39.6086: real time     39.7295

 eigenvalue-minimisations  : 94660
 total energy-change (2. order) : 0.2511461E+02  (-0.5224713E+00)
 number of electron     705.0004985 magnetization 
 augmentation part      375.8853532 magnetization 

 Broyden mixing:
  rms(total) = 0.15142E+01    rms(broyden)= 0.15140E+01
  rms(prec ) = 0.19538E+01
  weight for this iteration     100.00

 eigenvalues of (default mixing * dielectric matrix)
  average eigenvalue GAMMA=   0.9401
  1.2169  0.6633

 Free energy of the ion-electron system (eV)
  ---------------------------------------------------
  alpha Z        PSCENC =      5872.37522996
  Ewald energy   TEWEN  =    -70851.59314645
  -Hartree energ DENC   =    -19756.32664179
  -exchange      EXHF   =         0.00000000
  -V(xc)+E(xc)   XCENC  =      1762.29344902
  PAW double counting   =     81018.38199793   -89238.22967237
  entropy T*S    EENTRO =        -0.10605386
  eigenvalues    EBANDS =      1828.67751789
  atomic energy  EATOM  =     89017.68874048
  Solvation  Ediel_sol  =         0.00000000
  ---------------------------------------------------
  free energy    TOTEN  =      -346.83857920 eV

  energy without entropy =     -346.73252533  energy(sigma->0) =     -346.78555226


--------------------------------------------------------------------------------------------------------




--------------------------------------- Iteration      1(   8)  ---------------------------------------


    POTLOK:  cpu time      0.0112: real time      0.0170
    SETDIJ:  cpu time      0.0067: real time      0.0127
    EDDIAG:  cpu time     13.8361: real time     13.8688
  RMM-DIIS:  cpu time     21.4859: real time     21.5392
    ORTHCH:  cpu time      6.0675: real time      6.0814
       DOS:  cpu time      0.0019: real time      0.0018
    CHARGE:  cpu time      0.1492: real time      0.1517
    MIXING:  cpu time      0.0005: real time      0.0005
    --------------------------------------------
      LOOP:  cpu time     41.5589: real time     41.6731

 eigenvalue-minimisations  :106170
 total energy-change (2. order) : 0.2242548E+01  (-0.4417257E-01)
 number of electron     705.0005085 magnetization 
 augmentation part      382.9994997 magnetization 

 Broyden mixing:
  rms(total) = 0.98465E+00    rms(broyden)= 0.98463E+00
  rms(prec ) = 0.10497E+01
  weight for this iteration     100.00

 eigenvalues of (default mixing * dielectric matrix)
  average eigenvalue GAMMA=   1.0636
  1.4960  1.1114  0.5833

 Free energy of the ion-electron system (eV)
  ---------------------------------------------------
  alpha Z        PSCENC =      5872.37522996
  Ewald energy   TEWEN  =    -70851.59314645
  -Hartree energ DENC   =    -19454.90025722
  -exchange      EXHF   =         0.00000000
  -V(xc)+E(xc)   XCENC  =      1748.71295297
  PAW double counting   =     81692.36867838   -89895.14775995
  entropy T*S    EENTRO =        -0.10032913
  eigenvalues    EBANDS =      1525.99985978
  atomic energy  EATOM  =     89017.68874048
  Solvation  Ediel_sol  =         0.00000000
  ---------------------------------------------------
  free energy    TOTEN  =      -344.59603118 eV

  energy without entropy =     -344.49570204  energy(sigma->0) =     -344.54586661


--------------------------------------------------------------------------------------------------------




--------------------------------------- Iteration      1(   9)  ---------------------------------------


    POTLOK:  cpu time      0.0117: real time      0.0196
    SETDIJ:  cpu time      0.0050: real time      0.0073
    EDDIAG:  cpu time     13.7707: real time     13.8036
  RMM-DIIS:  cpu time     22.4166: real time     22.4747
    ORTHCH:  cpu time      6.0702: real time      6.0845
       DOS:  cpu time      0.0019: real time      0.0019
    CHARGE:  cpu time      0.1489: real time      0.1511
    MIXING:  cpu time      0.0005: real time      0.0005
    --------------------------------------------
      LOOP:  cpu time     42.4254: real time     42.5432

 eigenvalue-minimisations  :110727
 total energy-change (2. order) : 0.3886555E-01  (-0.1665047E-01)
 number of electron     705.0005067 magnetization 
 augmentation part      381.7342305 magnetization 

 Broyden mixing:
  rms(total) = 0.72362E+00    rms(broyden)= 0.72359E+00
  rms(prec ) = 0.98104E+00
  weight for this iteration     100.00

 eigenvalues of (default mixing * dielectric matrix)
  average eigenvalue GAMMA=   1.0269
  1.9942  1.1638  0.6018  0.3478

 Free energy of the ion-electron system (eV)
  ---------------------------------------------------
  alpha Z        PSCENC =      5872.37522996
  Ewald energy   TEWEN  =    -70851.59314645
  -Hartree energ DENC   =    -19423.86415548
  -exchange      EXHF   =         0.00000000
  -V(xc)+E(xc)   XCENC  =      1747.60020672
  PAW double counting   =     82391.08885277   -90660.61459018
  entropy T*S    EENTRO =        -0.10181109
  eigenvalues    EBANDS =      1562.86350765
  atomic energy  EATOM  =     89017.68874048
  Solvation  Ediel_sol  =         0.00000000
  ---------------------------------------------------
  free energy    TOTEN  =      -344.55716562 eV

  energy without entropy =     -344.45535454  energy(sigma->0) =     -344.50626008


--------------------------------------------------------------------------------------------------------




--------------------------------------- Iteration      1(  10)  ---------------------------------------


    POTLOK:  cpu time      0.0113: real time      0.0173
    SETDIJ:  cpu time      0.0060: real time      0.0086
    EDDIAG:  cpu time     13.8103: real time     13.8419
  RMM-DIIS:  cpu time     22.2164: real time     22.2938
    ORTHCH:  cpu time      6.1969: real time      6.2208
       DOS:  cpu time      0.0019: real time      0.0019
    CHARGE:  cpu time      0.1445: real time      0.1489
    MIXING:  cpu time      0.0006: real time      0.0006
    --------------------------------------------
      LOOP:  cpu time     42.3879: real time     42.5338

 eigenvalue-minimisations  :109347
 total energy-change (2. order) : 0.4557492E+00  (-0.6028567E-02)
 number of electron     705.0005061 magnetization 
 augmentation part      381.3293515 magnetization 

 Broyden mixing:
  rms(total) = 0.93367E-01    rms(broyden)= 0.93303E-01
  rms(prec ) = 0.12258E+00
  weight for this iteration     100.00

 eigenvalues of (default mixing * dielectric matrix)
  average eigenvalue GAMMA=   0.9801
  2.1239  1.1845  0.6665  0.5722  0.3532

 Free energy of the ion-electron system (eV)
  ---------------------------------------------------
  alpha Z        PSCENC =      5872.37522996
  Ewald energy   TEWEN  =    -70851.59314645
  -Hartree energ DENC   =    -19399.74091597
  -exchange      EXHF   =         0.00000000
  -V(xc)+E(xc)   XCENC  =      1746.67741201
  PAW double counting   =     82815.64484532   -91123.34522425
  entropy T*S    EENTRO =        -0.09832297
  eigenvalues    EBANDS =      1578.28996545
  atomic energy  EATOM  =     89017.68874048
  Solvation  Ediel_sol  =         0.00000000
  ---------------------------------------------------
  free energy    TOTEN  =      -344.10141642 eV

  energy without entropy =     -344.00309345  energy(sigma->0) =     -344.05225494


--------------------------------------------------------------------------------------------------------




--------------------------------------- Iteration      1(  11)  ---------------------------------------


    POTLOK:  cpu time      0.0124: real time      0.0194
    SETDIJ:  cpu time      0.0064: real time      0.0085
    EDDIAG:  cpu time     13.7900: real time     13.8243
  RMM-DIIS:  cpu time     22.4321: real time     22.4862
    ORTHCH:  cpu time      6.0753: real time      6.0901
       DOS:  cpu time      0.0018: real time      0.0018
    CHARGE:  cpu time      0.1523: real time      0.1551
    MIXING:  cpu time      0.0006: real time      0.0006
    --------------------------------------------
      LOOP:  cpu time     42.4709: real time     42.5862

 eigenvalue-minimisations  :110782
 total energy-change (2. order) : 0.7860780E-02  (-0.5389260E-03)
 number of electron     705.0005063 magnetization 
 augmentation part      381.4389341 magnetization 

 Broyden mixing:
  rms(total) = 0.74476E-01    rms(broyden)= 0.74468E-01
  rms(prec ) = 0.87245E-01
  weight for this iteration     100.00

 eigenvalues of (default mixing * dielectric matrix)
  average eigenvalue GAMMA=   0.9434
  2.2513  1.2448  0.8876  0.5925  0.3790  0.3054

 Free energy of the ion-electron system (eV)
  ---------------------------------------------------
  alpha Z        PSCENC =      5872.37522996
  Ewald energy   TEWEN  =    -70851.59314645
  -Hartree energ DENC   =    -19388.88334051
  -exchange      EXHF   =         0.00000000
  -V(xc)+E(xc)   XCENC  =      1746.21461384
  PAW double counting   =     82905.68891363   -91218.92374695
  entropy T*S    EENTRO =        -0.09813717
  eigenvalues    EBANDS =      1573.43731752
  atomic energy  EATOM  =     89017.68874048
  Solvation  Ediel_sol  =         0.00000000
  ---------------------------------------------------
  free energy    TOTEN  =      -344.09355564 eV

  energy without entropy =     -343.99541847  energy(sigma->0) =     -344.04448706


--------------------------------------------------------------------------------------------------------




--------------------------------------- Iteration      1(  12)  ---------------------------------------


    POTLOK:  cpu time      0.0126: real time      0.0178
    SETDIJ:  cpu time      0.0051: real time      0.0073
    EDDIAG:  cpu time     14.0584: real time     14.0890
  RMM-DIIS:  cpu time     22.2859: real time     22.3493
    ORTHCH:  cpu time      6.0664: real time      6.0810
       DOS:  cpu time      0.0019: real time      0.0019
    CHARGE:  cpu time      0.1498: real time      0.1547
    MIXING:  cpu time      0.0007: real time      0.0017
    --------------------------------------------
      LOOP:  cpu time     42.5810: real time     42.7027

 eigenvalue-minimisations  :109970
 total energy-change (2. order) : 0.3424481E-02  (-0.6253988E-04)
 number of electron     705.0005064 magnetization 
 augmentation part      381.5161957 magnetization 

 Broyden mixing:
  rms(total) = 0.51682E-01    rms(broyden)= 0.51682E-01
  rms(prec ) = 0.53621E-01
  weight for this iteration     100.00

 eigenvalues of (default mixing * dielectric matrix)
  average eigenvalue GAMMA=   1.0614
  2.2554  1.8044  1.0299  1.0299  0.5967  0.3735  0.3396

 Free energy of the ion-electron system (eV)
  ---------------------------------------------------
  alpha Z        PSCENC =      5872.37522996
  Ewald energy   TEWEN  =    -70851.59314645
  -Hartree energ DENC   =    -19379.53063715
  -exchange      EXHF   =         0.00000000
  -V(xc)+E(xc)   XCENC  =      1745.81546296
  PAW double counting   =     82987.87463041   -91306.00757882
  entropy T*S    EENTRO =        -0.09832854
  eigenvalues    EBANDS =      1569.38549600
  atomic energy  EATOM  =     89017.68874048
  Solvation  Ediel_sol  =         0.00000000
  ---------------------------------------------------
  free energy    TOTEN  =      -344.09013116 eV

  energy without entropy =     -343.99180262  energy(sigma->0) =     -344.04096689


--------------------------------------------------------------------------------------------------------




--------------------------------------- Iteration      1(  13)  ---------------------------------------


    POTLOK:  cpu time      0.0121: real time      0.0183
    SETDIJ:  cpu time      0.0061: real time      0.0089
    EDDIAG:  cpu time     13.8097: real time     13.8428
  RMM-DIIS:  cpu time     21.8685: real time     21.9325
    ORTHCH:  cpu time      6.0701: real time      6.0846
       DOS:  cpu time      0.0020: real time      0.0020
    CHARGE:  cpu time      0.1495: real time      0.1516
    MIXING:  cpu time      0.0006: real time      0.0006
    --------------------------------------------
      LOOP:  cpu time     41.9186: real time     42.0412

 eigenvalue-minimisations  :107813
 total energy-change (2. order) : 0.5485093E-04  (-0.1775314E-04)
 number of electron     705.0005064 magnetization 
 augmentation part      381.5250697 magnetization 

 Broyden mixing:
  rms(total) = 0.20553E-01    rms(broyden)= 0.20552E-01
  rms(prec ) = 0.23348E-01
  weight for this iteration     100.00

 eigenvalues of (default mixing * dielectric matrix)
  average eigenvalue GAMMA=   1.0497
  2.2984  2.2984  1.0628  1.0628  0.5968  0.3851  0.3466  0.3466

 Free energy of the ion-electron system (eV)
  ---------------------------------------------------
  alpha Z        PSCENC =      5872.37522996
  Ewald energy   TEWEN  =    -70851.59314645
  -Hartree energ DENC   =    -19377.31078601
  -exchange      EXHF   =         0.00000000
  -V(xc)+E(xc)   XCENC  =      1745.72212805
  PAW double counting   =     83018.85435970   -91338.48063459
  entropy T*S    EENTRO =        -0.09833948
  eigenvalues    EBANDS =      1568.75237203
  atomic energy  EATOM  =     89017.68874048
  Solvation  Ediel_sol  =         0.00000000
  ---------------------------------------------------
  free energy    TOTEN  =      -344.09007631 eV

  energy without entropy =     -343.99173683  energy(sigma->0) =     -344.04090657


--------------------------------------------------------------------------------------------------------




--------------------------------------- Iteration      1(  14)  ---------------------------------------


    POTLOK:  cpu time      0.0133: real time      0.0183
    SETDIJ:  cpu time      0.0049: real time      0.0078
    EDDIAG:  cpu time     13.7987: real time     13.8304
  RMM-DIIS:  cpu time     21.4734: real time     21.5296
    ORTHCH:  cpu time      6.0807: real time      6.0940
       DOS:  cpu time      0.0018: real time      0.0018
    CHARGE:  cpu time      0.1437: real time      0.1461
    MIXING:  cpu time      0.0006: real time      0.0006
    --------------------------------------------
      LOOP:  cpu time     41.5171: real time     41.6285

 eigenvalue-minimisations  :105406
 total energy-change (2. order) : 0.1066421E-03  (-0.4632484E-05)
 number of electron     705.0005064 magnetization 
 augmentation part      381.5319789 magnetization 

 Broyden mixing:
  rms(total) = 0.59365E-02    rms(broyden)= 0.59357E-02
  rms(prec ) = 0.69678E-02
  weight for this iteration     100.00

 eigenvalues of (default mixing * dielectric matrix)
  average eigenvalue GAMMA=   1.0878
  2.4372  2.4372  1.2526  0.9917  0.9917  0.5959  0.3351  0.3852  0.3637

 Free energy of the ion-electron system (eV)
  ---------------------------------------------------
  alpha Z        PSCENC =      5872.37522996
  Ewald energy   TEWEN  =    -70851.59314645
  -Hartree energ DENC   =    -19376.39571793
  -exchange      EXHF   =         0.00000000
  -V(xc)+E(xc)   XCENC  =      1745.68345923
  PAW double counting   =     83031.88287230   -91352.04291624
  entropy T*S    EENTRO =        -0.09833828
  eigenvalues    EBANDS =      1568.40984726
  atomic energy  EATOM  =     89017.68874048
  Solvation  Ediel_sol  =         0.00000000
  ---------------------------------------------------
  free energy    TOTEN  =      -344.08996967 eV

  energy without entropy =     -343.99163139  energy(sigma->0) =     -344.04080053


--------------------------------------------------------------------------------------------------------




--------------------------------------- Iteration      1(  15)  ---------------------------------------


    POTLOK:  cpu time      0.0111: real time      0.0147
    SETDIJ:  cpu time      0.0052: real time      0.0083
    EDDIAG:  cpu time     14.0776: real time     14.1100
  RMM-DIIS:  cpu time     19.3399: real time     19.3880
    ORTHCH:  cpu time      6.0724: real time      6.0870
       DOS:  cpu time      0.0018: real time      0.0018
    CHARGE:  cpu time      0.1477: real time      0.1505
    MIXING:  cpu time      0.0007: real time      0.0007
    --------------------------------------------
      LOOP:  cpu time     39.6564: real time     39.7609

 eigenvalue-minimisations  : 94534
 total energy-change (2. order) :-0.1363947E-04  (-0.1514019E-05)
 number of electron     705.0005064 magnetization 
 augmentation part      381.5421954 magnetization 

 Broyden mixing:
  rms(total) = 0.22476E-02    rms(broyden)= 0.22474E-02
  rms(prec ) = 0.23472E-02
  weight for this iteration     100.00

 eigenvalues of (default mixing * dielectric matrix)
  average eigenvalue GAMMA=   1.0940
  2.4453  2.4453  1.5220  1.0567  0.9530  0.8333  0.5959  0.3887  0.3373  0.3619

 Free energy of the ion-electron system (eV)
  ---------------------------------------------------
  alpha Z        PSCENC =      5872.37522996
  Ewald energy   TEWEN  =    -70851.59314645
  -Hartree energ DENC   =    -19375.44663664
  -exchange      EXHF   =         0.00000000
  -V(xc)+E(xc)   XCENC  =      1745.64320051
  PAW double counting   =     83043.04560011   -91363.62572570
  entropy T*S    EENTRO =        -0.09836265
  eigenvalues    EBANDS =      1567.92111706
  atomic energy  EATOM  =     89017.68874048
  Solvation  Ediel_sol  =         0.00000000
  ---------------------------------------------------
  free energy    TOTEN  =      -344.08998331 eV

  energy without entropy =     -343.99162066  energy(sigma->0) =     -344.04080198


--------------------------------------------------------------------------------------------------------




--------------------------------------- Iteration      1(  16)  ---------------------------------------


    POTLOK:  cpu time      0.0136: real time      0.0173
    SETDIJ:  cpu time      0.0058: real time      0.0085
    EDDIAG:  cpu time     13.8093: real time     13.8448
  RMM-DIIS:  cpu time     13.4855: real time     13.5214
    ORTHCH:  cpu time      6.4818: real time      6.4973
       DOS:  cpu time      0.0019: real time      0.0019
    --------------------------------------------
      LOOP:  cpu time     33.8134: real time     33.9112

 eigenvalue-minimisations  : 63631
 total energy-change (2. order) :-0.6218164E-05  (-0.5157479E-06)
 number of electron     705.0005064 magnetization 
 augmentation part      381.5421954 magnetization 

 Free energy of the ion-electron system (eV)
  ---------------------------------------------------
  alpha Z        PSCENC =      5872.37522996
  Ewald energy   TEWEN  =    -70851.59314645
  -Hartree energ DENC   =    -19375.27303254
  -exchange      EXHF   =         0.00000000
  -V(xc)+E(xc)   XCENC  =      1745.63614171
  PAW double counting   =     83045.16994959   -91365.81790857
  entropy T*S    EENTRO =        -0.09836838
  eigenvalues    EBANDS =      1567.82240467
  atomic energy  EATOM  =     89017.68874048
[...]
   8911.588223899156      0.000000000000      0.000000000000      0.000000000000      0.000000000000      0.000000000000      0.000000000000
   8912.095292747306      0.000000000000      0.000000000000      0.000000000000      0.000000000000      0.000000000000      0.000000000000
   8912.602361595456      0.000000000000      0.000000000000      0.000000000000      0.000000000000      0.000000000000      0.000000000000
   8913.109430443605      0.000000000000      0.000000000000      0.000000000000      0.000000000000      0.000000000000      0.000000000000
   8913.616499291755      0.000000000000      0.000000000000      0.000000000000      0.000000000000      0.000000000000      0.000000000000
   8914.123568139905      0.000000000000      0.000000000000      0.000000000000      0.000000000000      0.000000000000      0.000000000000
   8914.630636988055      0.000000000000      0.000000000000      0.000000000000      0.000000000000      0.000000000000      0.000000000000
   8915.137705836205      0.000000000000      0.000000000000      0.000000000000      0.000000000000      0.000000000000      0.000000000000
   8915.644774684353      0.000000000000      0.000000000000      0.000000000000      0.000000000000      0.000000000000      0.000000000000
   8916.151843532503      0.000000000000      0.000000000000      0.000000000000      0.000000000000      0.000000000000      0.000000000000
   8916.658912380653      0.000000000000      0.000000000000      0.000000000000      0.000000000000      0.000000000000      0.000000000000
   8917.165981228804      0.000000000000      0.000000000000      0.000000000000      0.000000000000      0.000000000000      0.000000000000
   8917.673050076954      0.000000000000      0.000000000000      0.000000000000      0.000000000000      0.000000000000      0.000000000000
   8918.180118925102      0.000000000000      0.000000000000      0.000000000000      0.000000000000      0.000000000000      0.000000000000
   8918.687187773252      0.000000000000      0.000000000000      0.000000000000      0.000000000000      0.000000000000      0.000000000000
   8919.194256621402      0.000000000000      0.000000000000      0.000000000000      0.000000000000      0.000000000000      0.000000000000
   8919.701325469552      0.000000000000      0.000000000000      0.000000000000      0.000000000000      0.000000000000      0.000000000000
   8920.208394317702      0.000000000000      0.000000000000      0.000000000000      0.000000000000      0.000000000000      0.000000000000
   8920.715463165850      0.000000000000      0.000000000000      0.000000000000      0.000000000000      0.000000000000      0.000000000000
   8921.222532014001      0.000000000000      0.000000000000      0.000000000000      0.000000000000      0.000000000000      0.000000000000
   8921.729600862151      0.000000000000      0.000000000000      0.000000000000      0.000000000000      0.000000000000      0.000000000000
   8922.236669710301      0.000000000000      0.000000000000      0.000000000000      0.000000000000      0.000000000000      0.000000000000
   8922.743738558451      0.000000000000      0.000000000000      0.000000000000      0.000000000000      0.000000000000      0.000000000000
   8923.250807406599      0.000000000000      0.000000000000      0.000000000000      0.000000000000      0.000000000000      0.000000000000
   8923.757876254749      0.000000000000      0.000000000000      0.000000000000      0.000000000000      0.000000000000      0.000000000000
   8924.264945102899      0.000000000000      0.000000000000      0.000000000000      0.000000000000      0.000000000000      0.000000000000
   8924.772013951049      0.000000000000      0.000000000000      0.000000000000      0.000000000000      0.000000000000      0.000000000000
   8925.279082799199      0.000000000000      0.000000000000      0.000000000000      0.000000000000      0.000000000000      0.000000000000
   8925.786151647348      0.000000000000      0.000000000000      0.000000000000      0.000000000000      0.000000000000      0.000000000000
   8926.293220495498      0.000000000000      0.000000000000      0.000000000000      0.000000000000      0.000000000000      0.000000000000
   8926.800289343648      0.000000000000      0.000000000000      0.000000000000      0.000000000000      0.000000000000      0.000000000000
   8927.307358191798      0.000000000000      0.000000000000      0.000000000000      0.000000000000      0.000000000000      0.000000000000
   8927.814427039948      0.000000000000      0.000000000000      0.000000000000      0.000000000000      0.000000000000      0.000000000000
   8928.321495888096      0.000000000000      0.000000000000      0.000000000000      0.000000000000      0.000000000000      0.000000000000
   8928.828564736246      0.000000000000      0.000000000000      0.000000000000      0.000000000000      0.000000000000      0.000000000000
   8929.335633584396      0.000000000000      0.000000000000      0.000000000000      0.000000000000      0.000000000000      0.000000000000
   8929.842702432547      0.000000000000      0.000000000000      0.000000000000      0.000000000000      0.000000000000      0.000000000000
   8930.349771280697      0.000000000000      0.000000000000      0.000000000000      0.000000000000      0.000000000000      0.000000000000
   8930.856840128845      0.000000000000      0.000000000000      0.000000000000      0.000000000000      0.000000000000      0.000000000000
   8931.363908976995      0.000000000000      0.000000000000      0.000000000000      0.000000000000      0.000000000000      0.000000000000
   8931.870977825145      0.000000000000      0.000000000000      0.000000000000      0.000000000000      0.000000000000      0.000000000000
   8932.378046673295      0.000000000000      0.000000000000      0.000000000000      0.000000000000      0.000000000000      0.000000000000
   8932.885115521445      0.000000000000      0.000000000000      0.000000000000      0.000000000000      0.000000000000      0.000000000000
   8933.392184369593      0.000000000000      0.000000000000      0.000000000000      0.000000000000      0.000000000000      0.000000000000
   8933.899253217744      0.000000000000      0.000000000000      0.000000000000      0.000000000000      0.000000000000      0.000000000000
   8934.406322065894      0.000000000000      0.000000000000      0.000000000000      0.000000000000      0.000000000000      0.000000000000
   8934.913390914044      0.000000000000      0.000000000000      0.000000000000      0.000000000000      0.000000000000      0.000000000000
   8935.420459762192      0.000000000000      0.000000000000      0.000000000000      0.000000000000      0.000000000000      0.000000000000
   8935.927528610342      0.000000000000      0.000000000000      0.000000000000      0.000000000000      0.000000000000      0.000000000000
   8936.434597458492      0.000000000000      0.000000000000      0.000000000000      0.000000000000      0.000000000000      0.000000000000
   8936.941666306642      0.000000000000      0.000000000000      0.000000000000      0.000000000000      0.000000000000      0.000000000000
   8937.448735154792      0.000000000000      0.000000000000      0.000000000000      0.000000000000      0.000000000000      0.000000000000
   8937.955804002941      0.000000000000      0.000000000000      0.000000000000      0.000000000000      0.000000000000      0.000000000000
   8938.462872851091      0.000000000000      0.000000000000      0.000000000000      0.000000000000      0.000000000000      0.000000000000
   8938.969941699241      0.000000000000      0.000000000000      0.000000000000      0.000000000000      0.000000000000      0.000000000000
   8939.477010547391      0.000000000000      0.000000000000      0.000000000000      0.000000000000      0.000000000000      0.000000000000
   8939.984079395541      0.000000000000      0.000000000000      0.000000000000      0.000000000000      0.000000000000      0.000000000000
   8940.491148243689      0.000000000000      0.000000000000      0.000000000000      0.000000000000      0.000000000000      0.000000000000
   8940.998217091839      0.000000000000      0.000000000000      0.000000000000      0.000000000000      0.000000000000      0.000000000000
   8941.505285939989      0.000000000000      0.000000000000      0.000000000000      0.000000000000      0.000000000000      0.000000000000
   8942.012354788139      0.000000000000      0.000000000000      0.000000000000      0.000000000000      0.000000000000      0.000000000000
   8942.519423636290      0.000000000000      0.000000000000      0.000000000000      0.000000000000      0.000000000000      0.000000000000
   8943.026492484438      0.000000000000      0.000000000000      0.000000000000      0.000000000000      0.000000000000      0.000000000000
   8943.533561332588      0.000000000000      0.000000000000      0.000000000000      0.000000000000      0.000000000000      0.000000000000
   8944.040630180738      0.000000000000      0.000000000000      0.000000000000      0.000000000000      0.000000000000      0.000000000000
   8944.547699028888      0.000000000000      0.000000000000      0.000000000000      0.000000000000      0.000000000000      0.000000000000
   8945.054767877038      0.000000000000      0.000000000000      0.000000000000      0.000000000000      0.000000000000      0.000000000000
   8945.561836725186      0.000000000000      0.000000000000      0.000000000000      0.000000000000      0.000000000000      0.000000000000
   8946.068905573336      0.000000000000      0.000000000000      0.000000000000      0.000000000000      0.000000000000      0.000000000000
   8946.575974421487      0.000000000000      0.000000000000      0.000000000000      0.000000000000      0.000000000000      0.000000000000
   8947.083043269637      0.000000000000      0.000000000000      0.000000000000      0.000000000000      0.000000000000      0.000000000000
   8947.590112117787      0.000000000000      0.000000000000      0.000000000000      0.000000000000      0.000000000000      0.000000000000
   8948.097180965935      0.000000000000      0.000000000000      0.000000000000      0.000000000000      0.000000000000      0.000000000000
   8948.604249814085      0.000000000000      0.000000000000      0.000000000000      0.000000000000      0.000000000000      0.000000000000
   8949.111318662235      0.000000000000      0.000000000000      0.000000000000      0.000000000000      0.000000000000      0.000000000000
   8949.618387510385      0.000000000000      0.000000000000      0.000000000000      0.000000000000      0.000000000000      0.000000000000
   8950.125456358535      0.000000000000      0.000000000000      0.000000000000      0.000000000000      0.000000000000      0.000000000000
   8950.632525206684      0.000000000000      0.000000000000      0.000000000000      0.000000000000      0.000000000000      0.000000000000
   8951.139594054834      0.000000000000      0.000000000000      0.000000000000      0.000000000000      0.000000000000      0.000000000000
   8951.646662902984      0.000000000000      0.000000000000      0.000000000000      0.000000000000      0.000000000000      0.000000000000
   8952.153731751134      0.000000000000      0.000000000000      0.000000000000      0.000000000000      0.000000000000      0.000000000000
   8952.660800599284      0.000000000000      0.000000000000      0.000000000000      0.000000000000      0.000000000000      0.000000000000
   8953.167869447432      0.000000000000      0.000000000000      0.000000000000      0.000000000000      0.000000000000      0.000000000000
   8953.674938295582      0.000000000000      0.000000000000      0.000000000000      0.000000000000      0.000000000000      0.000000000000
   8954.182007143732      0.000000000000      0.000000000000      0.000000000000      0.000000000000      0.000000000000      0.000000000000
   8954.689075991882      0.000000000000      0.000000000000      0.000000000000      0.000000000000      0.000000000000      0.000000000000
   8955.196144840033      0.000000000000      0.000000000000      0.000000000000      0.000000000000      0.000000000000      0.000000000000
   8955.703213688181      0.000000000000      0.000000000000      0.000000000000      0.000000000000      0.000000000000      0.000000000000
   8956.210282536331      0.000000000000      0.000000000000      0.000000000000      0.000000000000      0.000000000000      0.000000000000
   8956.717351384481      0.000000000000      0.000000000000      0.000000000000      0.000000000000      0.000000000000      0.000000000000
   8957.224420232631      0.000000000000      0.000000000000      0.000000000000      0.000000000000      0.000000000000      0.000000000000
   8957.731489080781      0.000000000000      0.000000000000      0.000000000000      0.000000000000      0.000000000000      0.000000000000
   8958.238557928929      0.000000000000      0.000000000000      0.000000000000      0.000000000000      0.000000000000      0.000000000000
   8958.745626777079      0.000000000000      0.000000000000      0.000000000000      0.000000000000      0.000000000000      0.000000000000
   8959.252695625230      0.000000000000      0.000000000000      0.000000000000      0.000000000000      0.000000000000      0.000000000000
   8959.759764473380      0.000000000000      0.000000000000      0.000000000000      0.000000000000      0.000000000000      0.000000000000
   8960.266833321530      0.000000000000      0.000000000000      0.000000000000      0.000000000000      0.000000000000      0.000000000000
   8960.773902169678      0.000000000000      0.000000000000      0.000000000000      0.000000000000      0.000000000000      0.000000000000
   8961.280971017828      0.000000000000      0.000000000000      0.000000000000      0.000000000000      0.000000000000      0.000000000000
   8961.788039865978      0.000000000000      0.000000000000      0.000000000000      0.000000000000      0.000000000000      0.000000000000
   8962.295108714128      0.000000000000      0.000000000000      0.000000000000      0.000000000000      0.000000000000      0.000000000000
   8962.802177562276      0.000000000000      0.000000000000      0.000000000000      0.000000000000      0.000000000000      0.000000000000
   8963.309246410427      0.000000000000      0.000000000000      0.000000000000      0.000000000000      0.000000000000      0.000000000000
   8963.816315258577      0.000000000000      0.000000000000      0.000000000000      0.000000000000      0.000000000000      0.000000000000
   8964.323384106727      0.000000000000      0.000000000000      0.000000000000      0.000000000000      0.000000000000      0.000000000000
   8964.830452954877      0.000000000000      0.000000000000      0.000000000000      0.000000000000      0.000000000000      0.000000000000
   8965.337521803025      0.000000000000      0.000000000000      0.000000000000      0.000000000000      0.000000000000      0.000000000000
   8965.844590651175      0.000000000000      0.000000000000      0.000000000000      0.000000000000      0.000000000000      0.000000000000
   8966.351659499325      0.000000000000      0.000000000000      0.000000000000      0.000000000000      0.000000000000      0.000000000000
   8966.858728347475      0.000000000000      0.000000000000      0.000000000000      0.000000000000      0.000000000000      0.000000000000
   8967.365797195625      0.000000000000      0.000000000000      0.000000000000      0.000000000000      0.000000000000      0.000000000000
   8967.872866043774      0.000000000000      0.000000000000      0.000000000000      0.000000000000      0.000000000000      0.000000000000
   8968.379934891924      0.000000000000      0.000000000000      0.000000000000      0.000000000000      0.000000000000      0.000000000000
   8968.887003740074      0.000000000000      0.000000000000      0.000000000000      0.000000000000      0.000000000000      0.000000000000
   8969.394072588224      0.000000000000      0.000000000000      0.000000000000      0.000000000000      0.000000000000      0.000000000000
   8969.901141436374      0.000000000000      0.000000000000      0.000000000000      0.000000000000      0.000000000000      0.000000000000
   8970.408210284522      0.000000000000      0.000000000000      0.000000000000      0.000000000000      0.000000000000      0.000000000000
   8970.915279132672      0.000000000000      0.000000000000      0.000000000000      0.000000000000      0.000000000000      0.000000000000
   8971.422347980822      0.000000000000      0.000000000000      0.000000000000      0.000000000000      0.000000000000      0.000000000000
   8971.929416828973      0.000000000000      0.000000000000      0.000000000000      0.000000000000      0.000000000000      0.000000000000
   8972.436485677123      0.000000000000      0.000000000000      0.000000000000      0.000000000000      0.000000000000      0.000000000000
   8972.943554525271      0.000000000000      0.000000000000      0.000000000000      0.000000000000      0.000000000000      0.000000000000
   8973.450623373421      0.000000000000      0.000000000000      0.000000000000      0.000000000000      0.000000000000      0.000000000000
   8973.957692221571      0.000000000000      0.000000000000      0.000000000000      0.000000000000      0.000000000000      0.000000000000
   8974.464761069721      0.000000000000      0.000000000000      0.000000000000      0.000000000000      0.000000000000      0.000000000000
   8974.971829917871      0.000000000000      0.000000000000      0.000000000000      0.000000000000      0.000000000000      0.000000000000
   8975.478898766019      0.000000000000      0.000000000000      0.000000000000      0.000000000000      0.000000000000      0.000000000000
   8975.985967614170      0.000000000000      0.000000000000      0.000000000000      0.000000000000      0.000000000000      0.000000000000
   8976.493036462320      0.000000000000      0.000000000000      0.000000000000      0.000000000000      0.000000000000      0.000000000000
   8977.000105310470      0.000000000000      0.000000000000      0.000000000000      0.000000000000      0.000000000000      0.000000000000
   8977.507174158620      0.000000000000      0.000000000000      0.000000000000      0.000000000000      0.000000000000      0.000000000000
   8978.014243006768      0.000000000000      0.000000000000      0.000000000000      0.000000000000      0.000000000000      0.000000000000
   8978.521311854918      0.000000000000      0.000000000000      0.000000000000      0.000000000000      0.000000000000      0.000000000000
   8979.028380703068      0.000000000000      0.000000000000      0.000000000000      0.000000000000      0.000000000000      0.000000000000
    4ORBIT:  cpu time      0.0000: real time      0.0000

 total amount of memory used by VASP MPI-rank0   200766. kBytes
=======================================================================

   base      :      30000. kBytes
   nonlr-proj:      31801. kBytes
   fftplans  :       1429. kBytes
   grid      :       7668. kBytes
   one-center:       1920. kBytes
   wavefun   :     127948. kBytes
 
  
  
 General timing and accounting informations for this job:
 ========================================================
  
                  Total CPU time used (sec):      847.926
                            User time (sec):      842.411
                          System time (sec):        5.514
                         Elapsed time (sec):      855.014
  
                   Maximum memory used (kb):      654984.
                   Average memory used (kb):          N/A
  
                          Minor page faults:       243714
                          Major page faults:            1
                 Voluntary context switches:         4081
